# vtk DataFile Version 3.0
Solution data
ASCII
DATASET STRUCTURED_GRID
DIMENSIONS 128 128 1
POINTS 16384  double
      0.000004      0.000004      0.000000
      0.000012      0.000004      0.000000
      0.000020      0.000004      0.000000
      0.000027      0.000004      0.000000
      0.000035      0.000004      0.000000
      0.000043      0.000004      0.000000
      0.000051      0.000004      0.000000
      0.000059      0.000004      0.000000
      0.000066      0.000004      0.000000
      0.000074      0.000004      0.000000
      0.000082      0.000004      0.000000
      0.000090      0.000004      0.000000
      0.000098      0.000004      0.000000
      0.000105      0.000004      0.000000
      0.000113      0.000004      0.000000
      0.000121      0.000004      0.000000
      0.000129      0.000004      0.000000
      0.000137      0.000004      0.000000
      0.000145      0.000004      0.000000
      0.000152      0.000004      0.000000
      0.000160      0.000004      0.000000
      0.000168      0.000004      0.000000
      0.000176      0.000004      0.000000
      0.000184      0.000004      0.000000
      0.000191      0.000004      0.000000
      0.000199      0.000004      0.000000
      0.000207      0.000004      0.000000
      0.000215      0.000004      0.000000
      0.000223      0.000004      0.000000
      0.000230      0.000004      0.000000
      0.000238      0.000004      0.000000
      0.000246      0.000004      0.000000
      0.000254      0.000004      0.000000
      0.000262      0.000004      0.000000
      0.000270      0.000004      0.000000
      0.000277      0.000004      0.000000
      0.000285      0.000004      0.000000
      0.000293      0.000004      0.000000
      0.000301      0.000004      0.000000
      0.000309      0.000004      0.000000
      0.000316      0.000004      0.000000
      0.000324      0.000004      0.000000
      0.000332      0.000004      0.000000
      0.000340      0.000004      0.000000
      0.000348      0.000004      0.000000
      0.000355      0.000004      0.000000
      0.000363      0.000004      0.000000
      0.000371      0.000004      0.000000
      0.000379      0.000004      0.000000
      0.000387      0.000004      0.000000
      0.000395      0.000004      0.000000
      0.000402      0.000004      0.000000
      0.000410      0.000004      0.000000
      0.000418      0.000004      0.000000
      0.000426      0.000004      0.000000
      0.000434      0.000004      0.000000
      0.000441      0.000004      0.000000
      0.000449      0.000004      0.000000
      0.000457      0.000004      0.000000
      0.000465      0.000004      0.000000
      0.000473      0.000004      0.000000
      0.000480      0.000004      0.000000
      0.000488      0.000004      0.000000
      0.000496      0.000004      0.000000
      0.000504      0.000004      0.000000
      0.000512      0.000004      0.000000
      0.000520      0.000004      0.000000
      0.000527      0.000004      0.000000
      0.000535      0.000004      0.000000
      0.000543      0.000004      0.000000
      0.000551      0.000004      0.000000
      0.000559      0.000004      0.000000
      0.000566      0.000004      0.000000
      0.000574      0.000004      0.000000
      0.000582      0.000004      0.000000
      0.000590      0.000004      0.000000
      0.000598      0.000004      0.000000
      0.000605      0.000004      0.000000
      0.000613      0.000004      0.000000
      0.000621      0.000004      0.000000
      0.000629      0.000004      0.000000
      0.000637      0.000004      0.000000
      0.000645      0.000004      0.000000
      0.000652      0.000004      0.000000
      0.000660      0.000004      0.000000
      0.000668      0.000004      0.000000
      0.000676      0.000004      0.000000
      0.000684      0.000004      0.000000
      0.000691      0.000004      0.000000
      0.000699      0.000004      0.000000
      0.000707      0.000004      0.000000
      0.000715      0.000004      0.000000
      0.000723      0.000004      0.000000
      0.000730      0.000004      0.000000
      0.000738      0.000004      0.000000
      0.000746      0.000004      0.000000
      0.000754      0.000004      0.000000
      0.000762      0.000004      0.000000
      0.000770      0.000004      0.000000
      0.000777      0.000004      0.000000
      0.000785      0.000004      0.000000
      0.000793      0.000004      0.000000
      0.000801      0.000004      0.000000
      0.000809      0.000004      0.000000
      0.000816      0.000004      0.000000
      0.000824      0.000004      0.000000
      0.000832      0.000004      0.000000
      0.000840      0.000004      0.000000
      0.000848      0.000004      0.000000
      0.000855      0.000004      0.000000
      0.000863      0.000004      0.000000
      0.000871      0.000004      0.000000
      0.000879      0.000004      0.000000
      0.000887      0.000004      0.000000
      0.000895      0.000004      0.000000
      0.000902      0.000004      0.000000
      0.000910      0.000004      0.000000
      0.000918      0.000004      0.000000
      0.000926      0.000004      0.000000
      0.000934      0.000004      0.000000
      0.000941      0.000004      0.000000
      0.000949      0.000004      0.000000
      0.000957      0.000004      0.000000
      0.000965      0.000004      0.000000
      0.000973      0.000004      0.000000
      0.000980      0.000004      0.000000
      0.000988      0.000004      0.000000
      0.000996      0.000004      0.000000
      0.000004      0.000012      0.000000
      0.000012      0.000012      0.000000
      0.000020      0.000012      0.000000
      0.000027      0.000012      0.000000
      0.000035      0.000012      0.000000
      0.000043      0.000012      0.000000
      0.000051      0.000012      0.000000
      0.000059      0.000012      0.000000
      0.000066      0.000012      0.000000
      0.000074      0.000012      0.000000
      0.000082      0.000012      0.000000
      0.000090      0.000012      0.000000
      0.000098      0.000012      0.000000
      0.000105      0.000012      0.000000
      0.000113      0.000012      0.000000
      0.000121      0.000012      0.000000
      0.000129      0.000012      0.000000
      0.000137      0.000012      0.000000
      0.000145      0.000012      0.000000
      0.000152      0.000012      0.000000
      0.000160      0.000012      0.000000
      0.000168      0.000012      0.000000
      0.000176      0.000012      0.000000
      0.000184      0.000012      0.000000
      0.000191      0.000012      0.000000
      0.000199      0.000012      0.000000
      0.000207      0.000012      0.000000
      0.000215      0.000012      0.000000
      0.000223      0.000012      0.000000
      0.000230      0.000012      0.000000
      0.000238      0.000012      0.000000
      0.000246      0.000012      0.000000
      0.000254      0.000012      0.000000
      0.000262      0.000012      0.000000
      0.000270      0.000012      0.000000
      0.000277      0.000012      0.000000
      0.000285      0.000012      0.000000
      0.000293      0.000012      0.000000
      0.000301      0.000012      0.000000
      0.000309      0.000012      0.000000
      0.000316      0.000012      0.000000
      0.000324      0.000012      0.000000
      0.000332      0.000012      0.000000
      0.000340      0.000012      0.000000
      0.000348      0.000012      0.000000
      0.000355      0.000012      0.000000
      0.000363      0.000012      0.000000
      0.000371      0.000012      0.000000
      0.000379      0.000012      0.000000
      0.000387      0.000012      0.000000
      0.000395      0.000012      0.000000
      0.000402      0.000012      0.000000
      0.000410      0.000012      0.000000
      0.000418      0.000012      0.000000
      0.000426      0.000012      0.000000
      0.000434      0.000012      0.000000
      0.000441      0.000012      0.000000
      0.000449      0.000012      0.000000
      0.000457      0.000012      0.000000
      0.000465      0.000012      0.000000
      0.000473      0.000012      0.000000
      0.000480      0.000012      0.000000
      0.000488      0.000012      0.000000
      0.000496      0.000012      0.000000
      0.000504      0.000012      0.000000
      0.000512      0.000012      0.000000
      0.000520      0.000012      0.000000
      0.000527      0.000012      0.000000
      0.000535      0.000012      0.000000
      0.000543      0.000012      0.000000
      0.000551      0.000012      0.000000
      0.000559      0.000012      0.000000
      0.000566      0.000012      0.000000
      0.000574      0.000012      0.000000
      0.000582      0.000012      0.000000
      0.000590      0.000012      0.000000
      0.000598      0.000012      0.000000
      0.000605      0.000012      0.000000
      0.000613      0.000012      0.000000
      0.000621      0.000012      0.000000
      0.000629      0.000012      0.000000
      0.000637      0.000012      0.000000
      0.000645      0.000012      0.000000
      0.000652      0.000012      0.000000
      0.000660      0.000012      0.000000
      0.000668      0.000012      0.000000
      0.000676      0.000012      0.000000
      0.000684      0.000012      0.000000
      0.000691      0.000012      0.000000
      0.000699      0.000012      0.000000
      0.000707      0.000012      0.000000
      0.000715      0.000012      0.000000
      0.000723      0.000012      0.000000
      0.000730      0.000012      0.000000
      0.000738      0.000012      0.000000
      0.000746      0.000012      0.000000
      0.000754      0.000012      0.000000
      0.000762      0.000012      0.000000
      0.000770      0.000012      0.000000
      0.000777      0.000012      0.000000
      0.000785      0.000012      0.000000
[...]
POINT_DATA 16384
SCALARS rhoe double
LOOKUP_TABLE default
 0.916793E-013
 0.911997E-013
 0.915563E-013
 0.915131E-013
 0.916365E-013
 0.916986E-013
 0.917804E-013
 0.918561E-013
 0.919332E-013
 0.920096E-013
 0.920859E-013
 0.921620E-013
 0.922377E-013
 0.923132E-013
 0.923883E-013
 0.924632E-013
 0.925377E-013
 0.926118E-013
 0.926855E-013
 0.927588E-013
 0.928317E-013
 0.929041E-013
 0.929759E-013
 0.930472E-013
 0.931179E-013
 0.931880E-013
 0.932574E-013
 0.933261E-013
 0.933941E-013
 0.934612E-013
 0.935274E-013
 0.935928E-013
 0.936571E-013
 0.937204E-013
 0.937826E-013
 0.938436E-013
 0.939034E-013
 0.939619E-013
 0.940190E-013
 0.940747E-013
 0.941289E-013
 0.941815E-013
 0.942325E-013
 0.942817E-013
 0.943292E-013
 0.943748E-013
 0.944184E-013
 0.944601E-013
 0.944997E-013
 0.945372E-013
 0.945725E-013
 0.946056E-013
 0.946363E-013
 0.946647E-013
 0.946907E-013
 0.947142E-013
 0.947352E-013
 0.947537E-013
 0.947696E-013
 0.947829E-013
 0.947936E-013
 0.948016E-013
 0.948069E-013
 0.948096E-013
 0.948096E-013
 0.948069E-013
 0.948016E-013
 0.947936E-013
 0.947829E-013
 0.947696E-013
 0.947537E-013
 0.947352E-013
 0.947142E-013
 0.946907E-013
 0.946647E-013
 0.946363E-013
 0.946056E-013
 0.945725E-013
 0.945372E-013
 0.944997E-013
 0.944601E-013
 0.944185E-013
 0.943748E-013
 0.943292E-013
 0.942817E-013
 0.942325E-013
 0.941815E-013
 0.941289E-013
 0.940747E-013
 0.940190E-013
 0.939619E-013
 0.939034E-013
 0.938436E-013
 0.937826E-013
 0.937204E-013
 0.936571E-013
 0.935928E-013
 0.935275E-013
 0.934612E-013
 0.933941E-013
 0.933262E-013
 0.932575E-013
 0.931880E-013
 0.931180E-013
 0.930472E-013
 0.929759E-013
 0.929041E-013
 0.928317E-013
 0.927589E-013
 0.926856E-013
 0.926118E-013
 0.925377E-013
 0.924632E-013
 0.923884E-013
 0.923132E-013
 0.922377E-013
 0.921620E-013
 0.920859E-013
 0.920096E-013
 0.919332E-013
 0.918561E-013
 0.917804E-013
 0.916986E-013
 0.916365E-013
 0.915131E-013
 0.915563E-013
 0.911997E-013
 0.916793E-013
 0.911997E-013
 0.907530E-013
 0.909420E-013
 0.907648E-013
 0.907625E-013
 0.906895E-013
 0.906415E-013
 0.905860E-013
 0.905327E-013
 0.904791E-013
 0.904258E-013
 0.903726E-013
 0.903196E-013
 0.902668E-013
 0.902143E-013
 0.901619E-013
 0.901098E-013
 0.900580E-013
 0.900065E-013
 0.899552E-013
 0.899042E-013
 0.898536E-013
 0.898034E-013
 0.897535E-013
 0.897040E-013
 0.896550E-013
 0.896064E-013
 0.895583E-013
 0.895108E-013
 0.894638E-013
 0.894174E-013
 0.893717E-013
 0.893267E-013
 0.892823E-013
 0.892388E-013
 0.891960E-013
 0.891541E-013
 0.891132E-013
 0.890731E-013
 0.890341E-013
 0.889961E-013
 0.889592E-013
 0.889235E-013
 0.888890E-013
 0.888557E-013
 0.888237E-013
 0.887931E-013
 0.887639E-013
 0.887361E-013
 0.887098E-013
 0.886850E-013
 0.886618E-013
 0.886402E-013
 0.886203E-013
 0.886021E-013
 0.885856E-013
 0.885708E-013
 0.885578E-013
 0.885467E-013
 0.885373E-013
 0.885298E-013
 0.885242E-013
 0.885205E-013
 0.885186E-013
 0.885186E-013
 0.885205E-013
 0.885242E-013
 0.885298E-013
 0.885373E-013
 0.885467E-013
 0.885578E-013
 0.885708E-013
 0.885856E-013
 0.886021E-013
 0.886203E-013
 0.886402E-013
 0.886618E-013
 0.886850E-013
 0.887098E-013
 0.887361E-013
 0.887639E-013
 0.887931E-013
 0.888237E-013
 0.888557E-013
 0.888890E-013
 0.889235E-013
 0.889592E-013
 0.889961E-013
 0.890341E-013
 0.890731E-013
 0.891132E-013
 0.891541E-013
 0.891960E-013
 0.892388E-013
 0.892823E-013
 0.893267E-013
 0.893717E-013
 0.894174E-013
 0.894638E-013
 0.895108E-013
 0.895583E-013
 0.896064E-013
 0.896550E-013
 0.897040E-013
 0.897535E-013
 0.898034E-013
 0.898536E-013
 0.899042E-013
 0.899552E-013
 0.900065E-013
 0.900580E-013
 0.901098E-013
 0.901619E-013
 0.902143E-013
 0.902668E-013
 0.903196E-013
 0.903726E-013
 0.904258E-013
 0.904791E-013
 0.905327E-013
 0.905860E-013
 0.906415E-013
 0.906895E-013
 0.907625E-013
 0.907648E-013
 0.909420E-013
 0.907530E-013
 0.911997E-013
 0.915563E-013
 0.909420E-013
 0.913432E-013
 0.911929E-013
 0.912984E-013
 0.913015E-013
 0.913402E-013
 0.913679E-013
 0.913984E-013
 0.914282E-013
 0.914580E-013
 0.914877E-013
 0.915172E-013
 0.915466E-013
 0.915759E-013
 0.916051E-013
 0.916342E-013
 0.916631E-013
 0.916918E-013
 0.917204E-013
 0.917488E-013
 0.917770E-013
 0.918051E-013
 0.918329E-013
 0.918605E-013
 0.918878E-013
 0.919149E-013
 0.919417E-013
 0.919683E-013
 0.919945E-013
 0.920204E-013
 0.920459E-013
 0.920710E-013
 0.920958E-013
 0.921201E-013
 0.921439E-013
 0.921673E-013
 0.921902E-013
 0.922125E-013
 0.922343E-013
 0.922555E-013
 0.922761E-013
 0.922961E-013
 0.923154E-013
 0.923340E-013
 0.923518E-013
 0.923689E-013
 0.923853E-013
 0.924008E-013
 0.924155E-013
 0.924293E-013
 0.924423E-013
 0.924543E-013
 0.924655E-013
 0.924756E-013
 0.924849E-013
 0.924931E-013
 0.925004E-013
 0.925066E-013
 0.925118E-013
 0.925160E-013
 0.925192E-013
 0.925213E-013
 0.925223E-013
 0.925223E-013
 0.925213E-013
 0.925192E-013
 0.925160E-013
 0.925118E-013
 0.925066E-013
 0.925004E-013
 0.924931E-013
 0.924849E-013
 0.924756E-013
 0.924655E-013
 0.924543E-013
 0.924423E-013
 0.924293E-013
 0.924155E-013
 0.924008E-013
 0.923852E-013
 0.923689E-013
 0.923518E-013
 0.923339E-013
 0.923154E-013
 0.922961E-013
 0.922761E-013
 0.922555E-013
 0.922343E-013
 0.922125E-013
 0.921902E-013
 0.921673E-013
 0.921439E-013
 0.921201E-013
 0.920957E-013
 0.920710E-013
 0.920459E-013
 0.920203E-013
 0.919945E-013
 0.919683E-013
 0.919417E-013
 0.919149E-013
 0.918878E-013
 0.918605E-013
 0.918329E-013
 0.918050E-013
 0.917770E-013
 0.917488E-013
 0.917204E-013
 0.916918E-013
 0.916630E-013
 0.916341E-013
 0.916051E-013
 0.915759E-013
 0.915466E-013
 0.915172E-013
 0.914876E-013
 0.914580E-013
 0.914282E-013
 0.913984E-013
 0.913679E-013
 0.913402E-013
 0.913015E-013
 0.912984E-013
 0.911929E-013
 0.913432E-013
 0.909420E-013
 0.915563E-013
 0.915131E-013
 0.907648E-013
 0.911929E-013
 0.909580E-013
 0.910375E-013
 0.909896E-013
 0.909866E-013
 0.909698E-013
 0.909568E-013
 0.909429E-013
 0.909292E-013
 0.909156E-013
 0.909020E-013
 0.908885E-013
 0.908751E-013
 0.908617E-013
 0.908483E-013
 0.908351E-013
 0.908219E-013
 0.908087E-013
 0.907957E-013
 0.907827E-013
 0.907698E-013
 0.907571E-013
 0.907444E-013
 0.907318E-013
 0.907194E-013
 0.907071E-013
 0.906949E-013
 0.906828E-013
 0.906710E-013
 0.906592E-013
 0.906477E-013
 0.906363E-013
 0.906252E-013
 0.906142E-013
 0.906034E-013
 0.905929E-013
 0.905827E-013
 0.905726E-013
 0.905629E-013
 0.905534E-013
 0.905443E-013
 0.905354E-013
 0.905269E-013
 0.905187E-013
 0.905108E-013
 0.905033E-013
 0.904961E-013
 0.904894E-013
 0.904830E-013
 0.904771E-013
 0.904715E-013
 0.904664E-013
 0.904617E-013
 0.904575E-013
 0.904537E-013
 0.904504E-013
 0.904475E-013
 0.904451E-013
 0.904432E-013
 0.904417E-013
 0.904408E-013
 0.904403E-013
 0.904403E-013
 0.904408E-013
 0.904417E-013
 0.904432E-013
 0.904451E-013
 0.904475E-013
 0.904504E-013
 0.904537E-013
 0.904575E-013
 0.904617E-013
 0.904664E-013
 0.904715E-013
 0.904771E-013
 0.904830E-013
 0.904894E-013
 0.904962E-013
 0.905033E-013
 0.905108E-013
 0.905187E-013
 0.905269E-013
 0.905354E-013
 0.905443E-013
 0.905534E-013
 0.905629E-013
 0.905727E-013
 0.905827E-013
 0.905929E-013
 0.906035E-013
 0.906142E-013
 0.906252E-013
 0.906363E-013
 0.906477E-013
 0.906592E-013
 0.906710E-013
 0.906829E-013
 0.906949E-013
 0.907071E-013
 0.907194E-013
 0.907318E-013
 0.907444E-013
 0.907571E-013
 0.907699E-013
 0.907827E-013
 0.907957E-013
 0.908087E-013
 0.908219E-013
 0.908351E-013
 0.908483E-013
 0.908617E-013
 0.908751E-013
 0.908885E-013
 0.909021E-013
 0.909156E-013
 0.909293E-013
 0.909429E-013
 0.909568E-013
 0.909698E-013
 0.909866E-013
 0.909896E-013
 0.910375E-013
 0.909580E-013
 0.911929E-013
 0.907648E-013
 0.915131E-013
 0.916365E-013
 0.907625E-013
 0.912984E-013
 0.910375E-013
 0.911560E-013
 0.911201E-013
 0.911386E-013
 0.911402E-013
 0.911465E-013
 0.911516E-013
 0.911570E-013
 0.911622E-013
 0.911675E-013
 0.911728E-013
 0.911780E-013
 0.911832E-013
 0.911884E-013
 0.911935E-013
 0.911986E-013
 0.912037E-013
 0.912088E-013
 0.912138E-013
 0.912188E-013
 0.912238E-013
 0.912287E-013
 0.912335E-013
 0.912384E-013
 0.912431E-013
 0.912479E-013
 0.912525E-013
 0.912571E-013
 0.912617E-013
 0.912662E-013
 0.912706E-013
 0.912749E-013
 0.912792E-013
 0.912833E-013
 0.912874E-013
 0.912914E-013
 0.912953E-013
 0.912991E-013
 0.913027E-013
 0.913063E-013
 0.913097E-013
 0.913130E-013
 0.913162E-013
 0.913193E-013
 0.913222E-013
 0.913250E-013
 0.913276E-013
 0.913300E-013
 0.913324E-013
 0.913345E-013
 0.913365E-013
 0.913383E-013
 0.913400E-013
 0.913414E-013
 0.913427E-013
 0.913438E-013
 0.913448E-013
 0.913455E-013
 0.913461E-013
 0.913465E-013
 0.913466E-013
 0.913466E-013
 0.913464E-013
 0.913461E-013
 0.913455E-013
 0.913448E-013
 0.913438E-013
 0.913427E-013
 0.913414E-013
 0.913400E-013
 0.913383E-013
 0.913365E-013
 0.913345E-013
 0.913324E-013
 0.913300E-013
 0.913276E-013
 0.913249E-013
 0.913222E-013
 0.913193E-013
 0.913162E-013
 0.913130E-013
 0.913097E-013
 0.913063E-013
 0.913027E-013
 0.912990E-013
 0.912953E-013
 0.912914E-013
 0.912874E-013
 0.912833E-013
 0.912792E-013
 0.912749E-013
 0.912706E-013
 0.912662E-013
 0.912617E-013
 0.912571E-013
 0.912525E-013
 0.912479E-013
 0.912431E-013
 0.912384E-013
 0.912335E-013
 0.912287E-013
 0.912237E-013
 0.912188E-013
 0.912138E-013
 0.912088E-013
 0.912037E-013
 0.911986E-013
 0.911935E-013
 0.911884E-013
 0.911832E-013
 0.911780E-013
 0.911728E-013
 0.911675E-013
 0.911622E-013
 0.911570E-013
 0.911516E-013
 0.911465E-013
 0.911402E-013
 0.911386E-013
 0.911201E-013
 0.911560E-013
 0.910375E-013
 0.912984E-013
 0.907625E-013
 0.916365E-013
 0.916986E-013
 0.906895E-013
 0.913015E-013
 0.909896E-013
 0.911201E-013
 0.910698E-013
 0.910835E-013
 0.910773E-013
 0.910767E-013
 0.910746E-013
 0.910729E-013
 0.910711E-013
 0.910694E-013
 0.910676E-013
 0.910659E-013
 0.910641E-013
 0.910624E-013
 0.910607E-013
 0.910590E-013
 0.910573E-013
 0.910556E-013
 0.910539E-013
 0.910522E-013
 0.910506E-013
 0.910489E-013
 0.910473E-013
 0.910457E-013
 0.910441E-013
 0.910425E-013
 0.910409E-013
 0.910394E-013
 0.910379E-013
 0.910364E-013
 0.910349E-013
 0.910335E-013
 0.910320E-013
 0.910307E-013
 0.910293E-013
 0.910280E-013
 0.910267E-013
 0.910254E-013
 0.910242E-013
 0.910230E-013
 0.910218E-013
 0.910207E-013
 0.910197E-013
 0.910187E-013
 0.910177E-013
 0.910168E-013
 0.910159E-013
 0.910151E-013
 0.910143E-013
 0.910136E-013
 0.910129E-013
 0.910123E-013
 0.910118E-013
 0.910113E-013
 0.910108E-013
 0.910105E-013
 0.910102E-013
 0.910099E-013
 0.910097E-013
 0.910096E-013
 0.910095E-013
 0.910095E-013
 0.910096E-013
 0.910097E-013
 0.910099E-013
 0.910102E-013
 0.910105E-013
 0.910108E-013
 0.910113E-013
 0.910118E-013
 0.910123E-013
 0.910129E-013
 0.910136E-013
 0.910143E-013
 0.910151E-013
 0.910159E-013
 0.910168E-013
 0.910177E-013
 0.910187E-013
 0.910197E-013
 0.910207E-013
 0.910218E-013
 0.910230E-013
 0.910242E-013
 0.910254E-013
 0.910267E-013
 0.910280E-013
 0.910293E-013
 0.910307E-013
 0.910320E-013
 0.910335E-013
 0.910349E-013
 0.910364E-013
 0.910379E-013
 0.910394E-013
 0.910409E-013
 0.910425E-013
 0.910441E-013
 0.910457E-013
 0.910473E-013
 0.910489E-013
 0.910506E-013
 0.910522E-013
 0.910539E-013
 0.910556E-013
 0.910573E-013
 0.910590E-013
 0.910607E-013
 0.910624E-013
 0.910641E-013
 0.910659E-013
 0.910676E-013
 0.910694E-013
 0.910711E-013
 0.910729E-013
 0.910746E-013
 0.910767E-013
 0.910773E-013
 0.910835E-013
 0.910698E-013
 0.911201E-013
 0.909896E-013
 0.913015E-013
 0.906895E-013
 0.916986E-013
 0.917804E-013
 0.906415E-013
 0.913402E-013
 0.909866E-013
 0.911386E-013
 0.910835E-013
 0.911018E-013
 0.910973E-013
 0.910991E-013
 0.910994E-013
 0.910999E-013
 0.911004E-013
 0.911010E-013
 0.911015E-013
 0.911020E-013
 0.911025E-013
 0.911030E-013
 0.911035E-013
 0.911040E-013
 0.911045E-013
 0.911050E-013
 0.911055E-013
 0.911060E-013
 0.911065E-013
 0.911070E-013
 0.911075E-013
 0.911079E-013
 0.911084E-013
 0.911089E-013
 0.911093E-013
 0.911098E-013
 0.911102E-013
 0.911107E-013
 0.911111E-013
 0.911115E-013
 0.911120E-013
 0.911124E-013
 0.911128E-013
 0.911132E-013
 0.911135E-013
 0.911139E-013
 0.911143E-013
 0.911146E-013
 0.911150E-013
 0.911153E-013
 0.911156E-013
 0.911159E-013
 0.911162E-013
 0.911165E-013
 0.911168E-013
 0.911170E-013
 0.911172E-013
 0.911174E-013
 0.911176E-013
 0.911178E-013
 0.911180E-013
 0.911181E-013
 0.911183E-013
 0.911184E-013
 0.911185E-013
 0.911185E-013
 0.911186E-013
 0.911186E-013
 0.911187E-013
 0.911187E-013
 0.911186E-013
 0.911186E-013
 0.911185E-013
 0.911185E-013
 0.911184E-013
 0.911183E-013
 0.911181E-013
 0.911180E-013
 0.911178E-013
 0.911176E-013
 0.911174E-013
 0.911172E-013
 0.911170E-013
 0.911168E-013
 0.911165E-013
 0.911162E-013
 0.911159E-013
 0.911156E-013
 0.911153E-013
 0.911150E-013
 0.911146E-013
 0.911143E-013
 0.911139E-013
 0.911135E-013
 0.911132E-013
 0.911128E-013
 0.911124E-013
 0.911120E-013
 0.911115E-013
 0.911111E-013
 0.911107E-013
 0.911102E-013
 0.911098E-013
 0.911093E-013
 0.911089E-013
 0.911084E-013
 0.911079E-013
 0.911075E-013
 0.911070E-013
 0.911065E-013
 0.911060E-013
 0.911055E-013
 0.911050E-013
 0.911045E-013
 0.911040E-013
 0.911035E-013
 0.911030E-013
 0.911025E-013
 0.911020E-013
 0.911015E-013
 0.911010E-013
 0.911004E-013
 0.910999E-013
 0.910994E-013
 0.910991E-013
 0.910973E-013
 0.911018E-013
 0.910835E-013
 0.911386E-013
 0.909866E-013
 0.913402E-013
 0.906415E-013
 0.917804E-013
 0.918561E-013
 0.905860E-013
 0.913679E-013
 0.909698E-013
 0.911402E-013
 0.910773E-013
 0.910973E-013
 0.910915E-013
 0.910928E-013
 0.910923E-013
 0.910923E-013
 0.910921E-013
 0.910920E-013
 0.910919E-013
 0.910917E-013
 0.910916E-013
 0.910915E-013
 0.910913E-013
 0.910912E-013
 0.910911E-013
 0.910909E-013
 0.910908E-013
 0.910907E-013
 0.910906E-013
 0.910904E-013
 0.910903E-013
 0.910902E-013
 0.910901E-013
 0.910900E-013
 0.910898E-013
 0.910897E-013
 0.910896E-013
 0.910895E-013
 0.910894E-013
 0.910893E-013
 0.910892E-013
 0.910891E-013
 0.910890E-013
 0.910889E-013
 0.910888E-013
 0.910887E-013
 0.910886E-013
 0.910885E-013
 0.910884E-013
 0.910883E-013
 0.910883E-013
 0.910882E-013
 0.910881E-013
 0.910881E-013
 0.910880E-013
 0.910879E-013
 0.910879E-013
 0.910878E-013
 0.910878E-013
 0.910877E-013
 0.910877E-013
 0.910877E-013
 0.910876E-013
 0.910876E-013
 0.910876E-013
 0.910876E-013
 0.910876E-013
 0.910876E-013
 0.910875E-013
 0.910875E-013
 0.910876E-013
 0.910876E-013
 0.910876E-013
 0.910876E-013
 0.910876E-013
 0.910876E-013
 0.910877E-013
 0.910877E-013
 0.910877E-013
 0.910878E-013
 0.910878E-013
 0.910879E-013
 0.910879E-013
 0.910880E-013
 0.910881E-013
 0.910881E-013
 0.910882E-013
 0.910883E-013
 0.910883E-013
 0.910884E-013
 0.910885E-013
 0.910886E-013
 0.910887E-013
 0.910888E-013
 0.910889E-013
 0.910890E-013
 0.910891E-013
 0.910892E-013
 0.910893E-013
 0.910894E-013
 0.910895E-013
 0.910896E-013
 0.910897E-013
 0.910898E-013
 0.910900E-013
 0.910901E-013
 0.910902E-013
 0.910903E-013
 0.910904E-013
 0.910906E-013
 0.910907E-013
 0.910908E-013
 0.910909E-013
 0.910911E-013
 0.910912E-013
 0.910913E-013
 0.910915E-013
 0.910916E-013
 0.910917E-013
 0.910919E-013
 0.910920E-013
 0.910921E-013
 0.910923E-013
 0.910923E-013
 0.910928E-013
 0.910915E-013
 0.910973E-013
 0.910773E-013
 0.911402E-013
 0.909698E-013
 0.913679E-013
 0.905860E-013
 0.918561E-013
 0.919332E-013
 0.905327E-013
 0.913984E-013
 0.909568E-013
 0.911465E-013
 0.910767E-013
 0.910991E-013
 0.910928E-013
 0.910944E-013
 0.910941E-013
 0.910942E-013
 0.910942E-013
 0.910943E-013
 0.910943E-013
 0.910943E-013
 0.910944E-013
 0.910944E-013
 0.910944E-013
 0.910945E-013
 0.910945E-013
 0.910945E-013
 0.910946E-013
 0.910946E-013
 0.910946E-013
 0.910946E-013
 0.910947E-013
 0.910947E-013
 0.910947E-013
 0.910948E-013
 0.910948E-013
 0.910948E-013
 0.910949E-013
 0.910949E-013
 0.910949E-013
 0.910950E-013
 0.910950E-013
 0.910950E-013
 0.910950E-013
 0.910951E-013
 0.910951E-013
 0.910951E-013
 0.910952E-013
 0.910952E-013
 0.910952E-013
 0.910952E-013
 0.910953E-013
 0.910953E-013
 0.910953E-013
 0.910953E-013
 0.910953E-013
 0.910954E-013
 0.910954E-013
 0.910954E-013
 0.910954E-013
 0.910954E-013
 0.910954E-013
 0.910955E-013
 0.910955E-013
 0.910955E-013
 0.910955E-013
 0.910955E-013
 0.910955E-013
 0.910955E-013
 0.910955E-013
 0.910955E-013
 0.910955E-013
 0.910955E-013
 0.910955E-013
 0.910955E-013
 0.910955E-013
 0.910955E-013
 0.910955E-013
 0.910954E-013
 0.910954E-013
 0.910954E-013
 0.910954E-013
 0.910954E-013
 0.910954E-013
 0.910953E-013
 0.910953E-013
 0.910953E-013
 0.910953E-013
 0.910953E-013
 0.910952E-013
 0.910952E-013
 0.910952E-013
 0.910952E-013
 0.910951E-013
 0.910951E-013
 0.910951E-013
 0.910950E-013
 0.910950E-013
 0.910950E-013
 0.910950E-013
 0.910949E-013
 0.910949E-013
 0.910949E-013
 0.910948E-013
 0.910948E-013
 0.910948E-013
 0.910947E-013
 0.910947E-013
 0.910947E-013
 0.910946E-013
 0.910946E-013
 0.910946E-013
 0.910946E-013
 0.910945E-013
 0.910945E-013
 0.910945E-013
 0.910944E-013
 0.910944E-013
 0.910944E-013
 0.910943E-013
 0.910943E-013
 0.910943E-013
 0.910942E-013
 0.910942E-013
 0.910941E-013
 0.910944E-013
 0.910928E-013
 0.910991E-013
 0.910767E-013
 0.911465E-013
 0.909568E-013
 0.913984E-013
 0.905327E-013
 0.919332E-013
 0.920096E-013
 0.904791E-013
 0.914282E-013
 0.909429E-013
 0.911516E-013
 0.910746E-013
 0.910994E-013
 0.910923E-013
 0.910941E-013
 0.910937E-013
 0.910938E-013
 0.910937E-013
 0.910937E-013
 0.910937E-013
 0.910937E-013
 0.910937E-013
 0.910937E-013
 0.910937E-013
 0.910937E-013
 0.910937E-013
 0.910937E-013
 0.910937E-013
 0.910937E-013
 0.910937E-013
 0.910937E-013
 0.910937E-013
 0.910937E-013
 0.910937E-013
 0.910937E-013
 0.910937E-013
 0.910937E-013
 0.910937E-013
 0.910937E-013
 0.910937E-013
 0.910937E-013
 0.910937E-013
 0.910937E-013
 0.910937E-013
 0.910937E-013
 0.910937E-013
 0.910937E-013
 0.910937E-013
 0.910937E-013
 0.910937E-013
 0.910937E-013
 0.910937E-013
 0.910937E-013
 0.910937E-013
 0.910937E-013
 0.910937E-013
 0.910937E-013
 0.910937E-013
 0.910937E-013
 0.910937E-013
 0.910937E-013
 0.910937E-013
 0.910937E-013
 0.910937E-013
 0.910937E-013
 0.910937E-013
 0.910937E-013
 0.910937E-013
 0.910937E-013
 0.910937E-013
 0.910937E-013
 0.910937E-013
 0.910937E-013
 0.910937E-013
 0.910937E-013
 0.910937E-013
 0.910937E-013
 0.910937E-013
 0.910937E-013
 0.910937E-013
 0.910937E-013
 0.910937E-013
 0.910937E-013
 0.910937E-013
 0.910937E-013
 0.910937E-013
 0.910937E-013
 0.910937E-013
 0.910937E-013
 0.910937E-013
 0.910937E-013
 0.910937E-013
 0.910937E-013
 0.910937E-013
 0.910937E-013
 0.910937E-013
 0.910937E-013
 0.910937E-013
 0.910937E-013
 0.910937E-013
 0.910937E-013
 0.910937E-013
 0.910937E-013
 0.910937E-013
 0.910937E-013
 0.910937E-013
 0.910937E-013
 0.910937E-013
 0.910937E-013
 0.910937E-013
 0.910937E-013
 0.910937E-013
 0.910937E-013
 0.910937E-013
 0.910937E-013
 0.910937E-013
 0.910937E-013
 0.910937E-013
 0.910937E-013
 0.910937E-013
 0.910937E-013
 0.910937E-013
 0.910937E-013
 0.910938E-013
 0.910937E-013
 0.910941E-013
 0.910923E-013
 0.910994E-013
 0.910746E-013
 0.911516E-013
 0.909429E-013
 0.914282E-013
 0.904791E-013
 0.920096E-013
 0.920859E-013
 0.904258E-013
 0.914580E-013
 0.909292E-013
 0.911570E-013
 0.910729E-013
 0.910999E-013
 0.910923E-013
 0.910942E-013
 0.910938E-013
 0.910939E-013
 0.910939E-013
 0.910939E-013
 0.910939E-013
 0.910939E-013
 0.910939E-013
 0.910939E-013
 0.910939E-013
 0.910939E-013
 0.910939E-013
 0.910939E-013
 0.910939E-013
 0.910939E-013
 0.910939E-013
 0.910939E-013
 0.910939E-013
 0.910939E-013
 0.910939E-013
 0.910939E-013
 0.910939E-013
 0.910939E-013
 0.910939E-013
 0.910939E-013
 0.910939E-013
 0.910939E-013
 0.910939E-013
 0.910940E-013
 0.910940E-013
 0.910940E-013
 0.910940E-013
 0.910940E-013
 0.910940E-013
 0.910940E-013
 0.910940E-013
 0.910940E-013
 0.910940E-013
 0.910940E-013
 0.910940E-013
 0.910941E-013