# vtk DataFile Version 3.0
Solution data
ASCII
DATASET STRUCTURED_GRID
DIMENSIONS 128 128 1
POINTS 16384  double
      0.000004      0.000004      0.000000
      0.000012      0.000004      0.000000
      0.000020      0.000004      0.000000
      0.000027      0.000004      0.000000
      0.000035      0.000004      0.000000
      0.000043      0.000004      0.000000
      0.000051      0.000004      0.000000
      0.000059      0.000004      0.000000
      0.000066      0.000004      0.000000
      0.000074      0.000004      0.000000
      0.000082      0.000004      0.000000
      0.000090      0.000004      0.000000
      0.000098      0.000004      0.000000
      0.000105      0.000004      0.000000
      0.000113      0.000004      0.000000
      0.000121      0.000004      0.000000
      0.000129      0.000004      0.000000
      0.000137      0.000004      0.000000
      0.000145      0.000004      0.000000
      0.000152      0.000004      0.000000
      0.000160      0.000004      0.000000
      0.000168      0.000004      0.000000
      0.000176      0.000004      0.000000
      0.000184      0.000004      0.000000
      0.000191      0.000004      0.000000
      0.000199      0.000004      0.000000
      0.000207      0.000004      0.000000
      0.000215      0.000004      0.000000
      0.000223      0.000004      0.000000
      0.000230      0.000004      0.000000
      0.000238      0.000004      0.000000
      0.000246      0.000004      0.000000
      0.000254      0.000004      0.000000
      0.000262      0.000004      0.000000
      0.000270      0.000004      0.000000
      0.000277      0.000004      0.000000
      0.000285      0.000004      0.000000
      0.000293      0.000004      0.000000
      0.000301      0.000004      0.000000
      0.000309      0.000004      0.000000
      0.000316      0.000004      0.000000
      0.000324      0.000004      0.000000
      0.000332      0.000004      0.000000
      0.000340      0.000004      0.000000
      0.000348      0.000004      0.000000
      0.000355      0.000004      0.000000
      0.000363      0.000004      0.000000
      0.000371      0.000004      0.000000
      0.000379      0.000004      0.000000
      0.000387      0.000004      0.000000
      0.000395      0.000004      0.000000
      0.000402      0.000004      0.000000
      0.000410      0.000004      0.000000
      0.000418      0.000004      0.000000
      0.000426      0.000004      0.000000
      0.000434      0.000004      0.000000
      0.000441      0.000004      0.000000
      0.000449      0.000004      0.000000
      0.000457      0.000004      0.000000
      0.000465      0.000004      0.000000
      0.000473      0.000004      0.000000
      0.000480      0.000004      0.000000
      0.000488      0.000004      0.000000
      0.000496      0.000004      0.000000
      0.000504      0.000004      0.000000
      0.000512      0.000004      0.000000
      0.000520      0.000004      0.000000
      0.000527      0.000004      0.000000
      0.000535      0.000004      0.000000
      0.000543      0.000004      0.000000
      0.000551      0.000004      0.000000
      0.000559      0.000004      0.000000
      0.000566      0.000004      0.000000
      0.000574      0.000004      0.000000
      0.000582      0.000004      0.000000
      0.000590      0.000004      0.000000
      0.000598      0.000004      0.000000
      0.000605      0.000004      0.000000
      0.000613      0.000004      0.000000
      0.000621      0.000004      0.000000
      0.000629      0.000004      0.000000
      0.000637      0.000004      0.000000
      0.000645      0.000004      0.000000
      0.000652      0.000004      0.000000
      0.000660      0.000004      0.000000
      0.000668      0.000004      0.000000
      0.000676      0.000004      0.000000
      0.000684      0.000004      0.000000
      0.000691      0.000004      0.000000
      0.000699      0.000004      0.000000
      0.000707      0.000004      0.000000
      0.000715      0.000004      0.000000
      0.000723      0.000004      0.000000
      0.000730      0.000004      0.000000
      0.000738      0.000004      0.000000
      0.000746      0.000004      0.000000
      0.000754      0.000004      0.000000
      0.000762      0.000004      0.000000
      0.000770      0.000004      0.000000
      0.000777      0.000004      0.000000
      0.000785      0.000004      0.000000
      0.000793      0.000004      0.000000
      0.000801      0.000004      0.000000
      0.000809      0.000004      0.000000
      0.000816      0.000004      0.000000
      0.000824      0.000004      0.000000
      0.000832      0.000004      0.000000
      0.000840      0.000004      0.000000
      0.000848      0.000004      0.000000
      0.000855      0.000004      0.000000
      0.000863      0.000004      0.000000
      0.000871      0.000004      0.000000
      0.000879      0.000004      0.000000
      0.000887      0.000004      0.000000
      0.000895      0.000004      0.000000
      0.000902      0.000004      0.000000
      0.000910      0.000004      0.000000
      0.000918      0.000004      0.000000
      0.000926      0.000004      0.000000
      0.000934      0.000004      0.000000
      0.000941      0.000004      0.000000
      0.000949      0.000004      0.000000
      0.000957      0.000004      0.000000
      0.000965      0.000004      0.000000
      0.000973      0.000004      0.000000
      0.000980      0.000004      0.000000
      0.000988      0.000004      0.000000
      0.000996      0.000004      0.000000
      0.000004      0.000012      0.000000
      0.000012      0.000012      0.000000
      0.000020      0.000012      0.000000
      0.000027      0.000012      0.000000
      0.000035      0.000012      0.000000
      0.000043      0.000012      0.000000
      0.000051      0.000012      0.000000
      0.000059      0.000012      0.000000
      0.000066      0.000012      0.000000
      0.000074      0.000012      0.000000
      0.000082      0.000012      0.000000
      0.000090      0.000012      0.000000
      0.000098      0.000012      0.000000
      0.000105      0.000012      0.000000
      0.000113      0.000012      0.000000
      0.000121      0.000012      0.000000
      0.000129      0.000012      0.000000
      0.000137      0.000012      0.000000
      0.000145      0.000012      0.000000
      0.000152      0.000012      0.000000
      0.000160      0.000012      0.000000
      0.000168      0.000012      0.000000
      0.000176      0.000012      0.000000
      0.000184      0.000012      0.000000
      0.000191      0.000012      0.000000
      0.000199      0.000012      0.000000
      0.000207      0.000012      0.000000
      0.000215      0.000012      0.000000
      0.000223      0.000012      0.000000
      0.000230      0.000012      0.000000
      0.000238      0.000012      0.000000
      0.000246      0.000012      0.000000
      0.000254      0.000012      0.000000
      0.000262      0.000012      0.000000
      0.000270      0.000012      0.000000
      0.000277      0.000012      0.000000
      0.000285      0.000012      0.000000
      0.000293      0.000012      0.000000
      0.000301      0.000012      0.000000
      0.000309      0.000012      0.000000
      0.000316      0.000012      0.000000
      0.000324      0.000012      0.000000
      0.000332      0.000012      0.000000
      0.000340      0.000012      0.000000
      0.000348      0.000012      0.000000
      0.000355      0.000012      0.000000
      0.000363      0.000012      0.000000
      0.000371      0.000012      0.000000
      0.000379      0.000012      0.000000
      0.000387      0.000012      0.000000
      0.000395      0.000012      0.000000
      0.000402      0.000012      0.000000
      0.000410      0.000012      0.000000
      0.000418      0.000012      0.000000
      0.000426      0.000012      0.000000
      0.000434      0.000012      0.000000
      0.000441      0.000012      0.000000
      0.000449      0.000012      0.000000
      0.000457      0.000012      0.000000
      0.000465      0.000012      0.000000
      0.000473      0.000012      0.000000
      0.000480      0.000012      0.000000
      0.000488      0.000012      0.000000
      0.000496      0.000012      0.000000
      0.000504      0.000012      0.000000
      0.000512      0.000012      0.000000
      0.000520      0.000012      0.000000
      0.000527      0.000012      0.000000
      0.000535      0.000012      0.000000
      0.000543      0.000012      0.000000
      0.000551      0.000012      0.000000
      0.000559      0.000012      0.000000
      0.000566      0.000012      0.000000
      0.000574      0.000012      0.000000
      0.000582      0.000012      0.000000
      0.000590      0.000012      0.000000
      0.000598      0.000012      0.000000
      0.000605      0.000012      0.000000
      0.000613      0.000012      0.000000
      0.000621      0.000012      0.000000
      0.000629      0.000012      0.000000
      0.000637      0.000012      0.000000
      0.000645      0.000012      0.000000
      0.000652      0.000012      0.000000
      0.000660      0.000012      0.000000
      0.000668      0.000012      0.000000
      0.000676      0.000012      0.000000
      0.000684      0.000012      0.000000
      0.000691      0.000012      0.000000
      0.000699      0.000012      0.000000
      0.000707      0.000012      0.000000
      0.000715      0.000012      0.000000
      0.000723      0.000012      0.000000
      0.000730      0.000012      0.000000
      0.000738      0.000012      0.000000
      0.000746      0.000012      0.000000
      0.000754      0.000012      0.000000
      0.000762      0.000012      0.000000
      0.000770      0.000012      0.000000
      0.000777      0.000012      0.000000
      0.000785      0.000012      0.000000
[...]
POINT_DATA 16384
SCALARS rhoe double
LOOKUP_TABLE default
 0.915716E-013
 0.912940E-013
 0.915242E-013
 0.915849E-013
 0.916915E-013
 0.917874E-013
 0.918851E-013
 0.919821E-013
 0.920790E-013
 0.921756E-013
 0.922719E-013
 0.923679E-013
 0.924636E-013
 0.925589E-013
 0.926539E-013
 0.927486E-013
 0.928428E-013
 0.929367E-013
 0.930300E-013
 0.931229E-013
 0.932153E-013
 0.933072E-013
 0.933984E-013
 0.934890E-013
 0.935789E-013
 0.936680E-013
 0.937564E-013
 0.938439E-013
 0.939305E-013
 0.940161E-013
 0.941006E-013
 0.941840E-013
 0.942662E-013
 0.943472E-013
 0.944268E-013
 0.945049E-013
 0.945815E-013
 0.946565E-013
 0.947298E-013
 0.948013E-013
 0.948708E-013
 0.949385E-013
 0.950040E-013
 0.950673E-013
 0.951284E-013
 0.951872E-013
 0.952434E-013
 0.952972E-013
 0.953483E-013
 0.953966E-013
 0.954422E-013
 0.954849E-013
 0.955246E-013
 0.955613E-013
 0.955949E-013
 0.956253E-013
 0.956525E-013
 0.956764E-013
 0.956970E-013
 0.957142E-013
 0.957280E-013
 0.957384E-013
 0.957453E-013
 0.957488E-013
 0.957488E-013
 0.957453E-013
 0.957384E-013
 0.957280E-013
 0.957142E-013
 0.956970E-013
 0.956764E-013
 0.956525E-013
 0.956253E-013
 0.955949E-013
 0.955613E-013
 0.955246E-013
 0.954849E-013
 0.954422E-013
 0.953966E-013
 0.953483E-013
 0.952972E-013
 0.952434E-013
 0.951872E-013
 0.951284E-013
 0.950673E-013
 0.950040E-013
 0.949384E-013
 0.948708E-013
 0.948012E-013
 0.947298E-013
 0.946565E-013
 0.945815E-013
 0.945049E-013
 0.944267E-013
 0.943472E-013
 0.942662E-013
 0.941840E-013
 0.941006E-013
 0.940161E-013
 0.939305E-013
 0.938439E-013
 0.937564E-013
 0.936680E-013
 0.935789E-013
 0.934890E-013
 0.933984E-013
 0.933071E-013
 0.932153E-013
 0.931229E-013
 0.930300E-013
 0.929366E-013
 0.928428E-013
 0.927486E-013
 0.926539E-013
 0.925589E-013
 0.924635E-013
 0.923679E-013
 0.922719E-013
 0.921756E-013
 0.920790E-013
 0.919821E-013
 0.918851E-013
 0.917874E-013
 0.916915E-013
 0.915849E-013
 0.915242E-013
 0.912940E-013
 0.915716E-013
 0.912940E-013
 0.908372E-013
 0.909576E-013
 0.908579E-013
 0.908238E-013
 0.907741E-013
 0.907276E-013
 0.906807E-013
 0.906341E-013
 0.905875E-013
 0.905412E-013
 0.904949E-013
 0.904488E-013
 0.904029E-013
 0.903572E-013
 0.903116E-013
 0.902662E-013
 0.902210E-013
 0.901761E-013
 0.901314E-013
 0.900869E-013
 0.900427E-013
 0.899988E-013
 0.899552E-013
 0.899119E-013
 0.898690E-013
 0.898265E-013
 0.897844E-013
 0.897428E-013
 0.897016E-013
 0.896609E-013
 0.896208E-013
 0.895812E-013
 0.895423E-013
 0.895040E-013
 0.894664E-013
 0.894296E-013
 0.893935E-013
 0.893583E-013
 0.893239E-013
 0.892904E-013
 0.892579E-013
 0.892264E-013
 0.891959E-013
 0.891665E-013
 0.891383E-013
 0.891112E-013
 0.890854E-013
 0.890608E-013
 0.890375E-013
 0.890156E-013
 0.889951E-013
 0.889760E-013
 0.889583E-013
 0.889422E-013
 0.889276E-013
 0.889145E-013
 0.889030E-013
 0.888931E-013
 0.888848E-013
 0.888782E-013
 0.888732E-013
 0.888698E-013
 0.888682E-013
 0.888682E-013
 0.888698E-013
 0.888732E-013
 0.888782E-013
 0.888848E-013
 0.888931E-013
 0.889030E-013
 0.889145E-013
 0.889276E-013
 0.889422E-013
 0.889584E-013
 0.889760E-013
 0.889951E-013
 0.890156E-013
 0.890376E-013
 0.890608E-013
 0.890854E-013
 0.891112E-013
 0.891383E-013
 0.891666E-013
 0.891959E-013
 0.892264E-013
 0.892579E-013
 0.892905E-013
 0.893239E-013
 0.893583E-013
 0.893936E-013
 0.894296E-013
 0.894665E-013
 0.895041E-013
 0.895424E-013
 0.895813E-013
 0.896208E-013
 0.896610E-013
 0.897016E-013
 0.897428E-013
 0.897845E-013
 0.898266E-013
 0.898691E-013
 0.899120E-013
 0.899553E-013
 0.899988E-013
 0.900428E-013
 0.900869E-013
 0.901314E-013
 0.901761E-013
 0.902211E-013
 0.902663E-013
 0.903116E-013
 0.903572E-013
 0.904029E-013
 0.904489E-013
 0.904950E-013
 0.905412E-013
 0.905876E-013
 0.906341E-013
 0.906808E-013
 0.907276E-013
 0.907741E-013
 0.908239E-013
 0.908579E-013
 0.909576E-013
 0.908372E-013
 0.912940E-013
 0.915242E-013
 0.909576E-013
 0.912118E-013
 0.911537E-013
 0.911889E-013
 0.912013E-013
 0.912183E-013
 0.912345E-013
 0.912507E-013
 0.912669E-013
 0.912830E-013
 0.912990E-013
 0.913150E-013
 0.913310E-013
 0.913469E-013
 0.913627E-013
 0.913785E-013
 0.913941E-013
 0.914097E-013
 0.914253E-013
 0.914407E-013
 0.914561E-013
 0.914713E-013
 0.914864E-013
 0.915014E-013
 0.915163E-013
 0.915311E-013
 0.915457E-013
 0.915602E-013
 0.915744E-013
 0.915886E-013
 0.916025E-013
 0.916162E-013
 0.916297E-013
 0.916430E-013
 0.916561E-013
 0.916688E-013
 0.916814E-013
 0.916936E-013
 0.917055E-013
 0.917171E-013
 0.917284E-013
 0.917394E-013
 0.917499E-013
 0.917601E-013
 0.917699E-013
 0.917793E-013
 0.917883E-013
 0.917968E-013
 0.918049E-013
 0.918125E-013
 0.918196E-013
 0.918262E-013
 0.918324E-013
 0.918380E-013
 0.918430E-013
 0.918476E-013
 0.918516E-013
 0.918550E-013
 0.918579E-013
 0.918602E-013
 0.918619E-013
 0.918631E-013
 0.918636E-013
 0.918636E-013
 0.918631E-013
 0.918619E-013
 0.918602E-013
 0.918579E-013
 0.918550E-013
 0.918516E-013
 0.918476E-013
 0.918430E-013
 0.918380E-013
 0.918324E-013
 0.918262E-013
 0.918196E-013
 0.918125E-013
 0.918049E-013
 0.917968E-013
 0.917883E-013
 0.917793E-013
 0.917699E-013
 0.917601E-013
 0.917499E-013
 0.917393E-013
 0.917284E-013
 0.917171E-013
 0.917055E-013
 0.916936E-013
 0.916813E-013
 0.916688E-013
 0.916560E-013
 0.916430E-013
 0.916297E-013
 0.916162E-013
 0.916025E-013
 0.915885E-013
 0.915744E-013
 0.915601E-013
 0.915457E-013
 0.915311E-013
 0.915163E-013
 0.915014E-013
 0.914864E-013
 0.914713E-013
 0.914560E-013
 0.914407E-013
 0.914253E-013
 0.914097E-013
 0.913941E-013
 0.913784E-013
 0.913627E-013
 0.913469E-013
 0.913310E-013
 0.913150E-013
 0.912990E-013
 0.912830E-013
 0.912668E-013
 0.912507E-013
 0.912345E-013
 0.912183E-013
 0.912013E-013
 0.911889E-013
 0.911537E-013
 0.912118E-013
 0.909576E-013
 0.915242E-013
 0.915849E-013
 0.908579E-013
 0.911537E-013
 0.910542E-013
 0.910739E-013
 0.910644E-013
 0.910609E-013
 0.910564E-013
 0.910520E-013
 0.910477E-013
 0.910433E-013
 0.910390E-013
 0.910347E-013
 0.910304E-013
 0.910261E-013
 0.910219E-013
 0.910177E-013
 0.910134E-013
 0.910092E-013
 0.910051E-013
 0.910009E-013
 0.909968E-013
 0.909927E-013
 0.909886E-013
 0.909846E-013
 0.909806E-013
 0.909766E-013
 0.909727E-013
 0.909688E-013
 0.909650E-013
 0.909612E-013
 0.909575E-013
 0.909538E-013
 0.909502E-013
 0.909466E-013
 0.909431E-013
 0.909397E-013
 0.909363E-013
 0.909330E-013
 0.909298E-013
 0.909267E-013
 0.909237E-013
 0.909208E-013
 0.909180E-013
 0.909152E-013
 0.909126E-013
 0.909101E-013
 0.909077E-013
 0.909054E-013
 0.909033E-013
 0.909012E-013
 0.908993E-013
 0.908975E-013
 0.908959E-013
 0.908944E-013
 0.908931E-013
 0.908918E-013
 0.908908E-013
 0.908899E-013
 0.908891E-013
 0.908885E-013
 0.908880E-013
 0.908877E-013
 0.908875E-013
 0.908875E-013
 0.908877E-013
 0.908880E-013
 0.908885E-013
 0.908891E-013
 0.908899E-013
 0.908908E-013
 0.908918E-013
 0.908931E-013
 0.908944E-013
 0.908959E-013
 0.908975E-013
 0.908993E-013
 0.909012E-013
 0.909033E-013
 0.909054E-013
 0.909077E-013
 0.909101E-013
 0.909126E-013
 0.909152E-013
 0.909180E-013
 0.909208E-013
 0.909237E-013
 0.909267E-013
 0.909299E-013
 0.909331E-013
 0.909363E-013
 0.909397E-013
 0.909431E-013
 0.909466E-013
 0.909502E-013
 0.909538E-013
 0.909575E-013
 0.909612E-013
 0.909650E-013
 0.909688E-013
 0.909727E-013
 0.909766E-013
 0.909806E-013
 0.909846E-013
 0.909886E-013
 0.909927E-013
 0.909968E-013
 0.910009E-013
 0.910051E-013
 0.910092E-013
 0.910134E-013
 0.910177E-013
 0.910219E-013
 0.910262E-013
 0.910304E-013
 0.910347E-013
 0.910390E-013
 0.910433E-013
 0.910477E-013
 0.910520E-013
 0.910564E-013
 0.910609E-013
 0.910644E-013
 0.910739E-013
 0.910542E-013
 0.911537E-013
 0.908579E-013
 0.915849E-013
 0.916915E-013
 0.908238E-013
 0.911889E-013
 0.910739E-013
 0.911043E-013
 0.910991E-013
 0.911012E-013
 0.911020E-013
 0.911029E-013
 0.911039E-013
 0.911048E-013
 0.911058E-013
 0.911067E-013
 0.911077E-013
 0.911086E-013
 0.911096E-013
 0.911105E-013
 0.911114E-013
 0.911123E-013
 0.911132E-013
 0.911142E-013
 0.911151E-013
 0.911160E-013
 0.911169E-013
 0.911177E-013
 0.911186E-013
 0.911195E-013
 0.911204E-013
 0.911212E-013
 0.911220E-013
 0.911229E-013
 0.911237E-013
 0.911245E-013
 0.911253E-013
 0.911261E-013
 0.911269E-013
 0.911276E-013
 0.911284E-013
 0.911291E-013
 0.911298E-013
 0.911305E-013
 0.911311E-013
 0.911318E-013
 0.911324E-013
 0.911330E-013
 0.911336E-013
 0.911342E-013
 0.911347E-013
 0.911352E-013
 0.911357E-013
 0.911361E-013
 0.911365E-013
 0.911369E-013
 0.911373E-013
 0.911376E-013
 0.911379E-013
 0.911382E-013
 0.911384E-013
 0.911386E-013
 0.911388E-013
 0.911390E-013
 0.911391E-013
 0.911391E-013
 0.911392E-013
 0.911392E-013
 0.911391E-013
 0.911391E-013
 0.911390E-013
 0.911388E-013
 0.911386E-013
 0.911384E-013
 0.911382E-013
 0.911379E-013
 0.911376E-013
 0.911373E-013
 0.911369E-013
 0.911365E-013
 0.911361E-013
 0.911357E-013
 0.911352E-013
 0.911347E-013
 0.911342E-013
 0.911336E-013
 0.911330E-013
 0.911324E-013
 0.911318E-013
 0.911311E-013
 0.911305E-013
 0.911298E-013
 0.911291E-013
 0.911284E-013
 0.911276E-013
 0.911269E-013
 0.911261E-013
 0.911253E-013
 0.911245E-013
 0.911237E-013
 0.911229E-013
 0.911220E-013
 0.911212E-013
 0.911204E-013
 0.911195E-013
 0.911186E-013
 0.911177E-013
 0.911169E-013
 0.911160E-013
 0.911151E-013
 0.911142E-013
 0.911132E-013
 0.911123E-013
 0.911114E-013
 0.911105E-013
 0.911096E-013
 0.911086E-013
 0.911077E-013
 0.911067E-013
 0.911058E-013
 0.911048E-013
 0.911039E-013
 0.911029E-013
 0.911020E-013
 0.911012E-013
 0.910991E-013
 0.911043E-013
 0.910739E-013
 0.911889E-013
 0.908239E-013
 0.916915E-013
 0.917874E-013
 0.907741E-013
 0.912013E-013
 0.910644E-013
 0.910991E-013
 0.910915E-013
 0.910927E-013
 0.910923E-013
 0.910922E-013
 0.910920E-013
 0.910918E-013
 0.910916E-013
 0.910915E-013
 0.910913E-013
 0.910911E-013
 0.910909E-013
 0.910908E-013
 0.910906E-013
 0.910904E-013
 0.910903E-013
 0.910901E-013
 0.910899E-013
 0.910898E-013
 0.910896E-013
 0.910894E-013
 0.910893E-013
 0.910891E-013
 0.910890E-013
 0.910888E-013
 0.910887E-013
 0.910885E-013
 0.910884E-013
 0.910882E-013
 0.910881E-013
 0.910879E-013
 0.910878E-013
 0.910877E-013
 0.910875E-013
 0.910874E-013
 0.910873E-013
 0.910872E-013
 0.910870E-013
 0.910869E-013
 0.910868E-013
 0.910867E-013
 0.910866E-013
 0.910865E-013
 0.910864E-013
 0.910864E-013
 0.910863E-013
 0.910862E-013
 0.910861E-013
 0.910861E-013
 0.910860E-013
 0.910859E-013
 0.910859E-013
 0.910859E-013
 0.910858E-013
 0.910858E-013
 0.910858E-013
 0.910857E-013
 0.910857E-013
 0.910857E-013
 0.910857E-013
 0.910857E-013
 0.910857E-013
 0.910857E-013
 0.910857E-013
 0.910858E-013
 0.910858E-013
 0.910858E-013
 0.910859E-013
 0.910859E-013
 0.910859E-013
 0.910860E-013
 0.910861E-013
 0.910861E-013
 0.910862E-013
 0.910863E-013
 0.910864E-013
 0.910864E-013
 0.910865E-013
 0.910866E-013
 0.910867E-013
 0.910868E-013
 0.910869E-013
 0.910870E-013
 0.910872E-013
 0.910873E-013
 0.910874E-013
 0.910875E-013
 0.910877E-013
 0.910878E-013
 0.910879E-013
 0.910881E-013
 0.910882E-013
 0.910884E-013
 0.910885E-013
 0.910887E-013
 0.910888E-013
 0.910890E-013
 0.910891E-013
 0.910893E-013
 0.910894E-013
 0.910896E-013
 0.910898E-013
 0.910899E-013
 0.910901E-013
 0.910903E-013
 0.910904E-013
 0.910906E-013
 0.910908E-013
 0.910909E-013
 0.910911E-013
 0.910913E-013
 0.910915E-013
 0.910916E-013
 0.910918E-013
 0.910920E-013
 0.910922E-013
 0.910923E-013
 0.910927E-013
 0.910916E-013
 0.910991E-013
 0.910644E-013
 0.912013E-013
 0.907741E-013
 0.917874E-013
 0.918851E-013
 0.907276E-013
 0.912183E-013
 0.910609E-013
 0.911012E-013
 0.910927E-013
 0.910943E-013
 0.910940E-013
 0.910941E-013
 0.910941E-013
 0.910942E-013
 0.910942E-013
 0.910942E-013
 0.910942E-013
 0.910943E-013
 0.910943E-013
 0.910943E-013
 0.910944E-013
 0.910944E-013
 0.910944E-013
 0.910944E-013
 0.910945E-013
 0.910945E-013
 0.910945E-013
 0.910945E-013
 0.910946E-013
 0.910946E-013
 0.910946E-013
 0.910947E-013
 0.910947E-013
 0.910947E-013
 0.910947E-013
 0.910948E-013
 0.910948E-013
 0.910948E-013
 0.910949E-013
 0.910949E-013
 0.910949E-013
 0.910949E-013
 0.910950E-013
 0.910950E-013
 0.910950E-013
 0.910951E-013
 0.910951E-013
 0.910951E-013
 0.910951E-013
 0.910952E-013
 0.910952E-013
 0.910952E-013
 0.910952E-013
 0.910952E-013
 0.910953E-013
 0.910953E-013
 0.910953E-013
 0.910953E-013
 0.910953E-013
 0.910953E-013
 0.910954E-013
 0.910954E-013
 0.910954E-013
 0.910954E-013
 0.910954E-013
 0.910954E-013
 0.910954E-013
 0.910954E-013
 0.910954E-013
 0.910954E-013
 0.910954E-013
 0.910954E-013
 0.910954E-013
 0.910954E-013
 0.910953E-013
 0.910953E-013
 0.910953E-013
 0.910953E-013
 0.910953E-013
 0.910953E-013
 0.910952E-013
 0.910952E-013
 0.910952E-013
 0.910952E-013
 0.910952E-013
 0.910951E-013
 0.910951E-013
 0.910951E-013
 0.910951E-013
 0.910950E-013
 0.910950E-013
 0.910950E-013
 0.910949E-013
 0.910949E-013
 0.910949E-013
 0.910949E-013
 0.910948E-013
 0.910948E-013
 0.910948E-013
 0.910947E-013
 0.910947E-013
 0.910947E-013
 0.910947E-013
 0.910946E-013
 0.910946E-013
 0.910946E-013
 0.910946E-013
 0.910945E-013
 0.910945E-013
 0.910945E-013
 0.910944E-013
 0.910944E-013
 0.910944E-013
 0.910944E-013
 0.910943E-013
 0.910943E-013
 0.910943E-013
 0.910942E-013
 0.910942E-013
 0.910942E-013
 0.910942E-013
 0.910941E-013
 0.910941E-013
 0.910940E-013
 0.910943E-013
 0.910927E-013
 0.911012E-013
 0.910609E-013
 0.912183E-013
 0.907276E-013
 0.918851E-013
 0.919821E-013
 0.906807E-013
 0.912345E-013
 0.910564E-013
 0.911020E-013
 0.910923E-013
 0.910940E-013
 0.910938E-013
 0.910938E-013
 0.910938E-013
 0.910938E-013
 0.910938E-013
 0.910938E-013
 0.910938E-013
 0.910938E-013
 0.910938E-013
 0.910938E-013
 0.910938E-013
 0.910938E-013
 0.910938E-013
 0.910938E-013
 0.910938E-013
 0.910938E-013
 0.910938E-013
 0.910938E-013
 0.910938E-013
 0.910938E-013
 0.910938E-013
 0.910938E-013
 0.910938E-013
 0.910938E-013
 0.910938E-013
 0.910938E-013
 0.910938E-013
 0.910938E-013
 0.910938E-013
 0.910938E-013
 0.910938E-013
 0.910938E-013
 0.910938E-013
 0.910938E-013
 0.910938E-013
 0.910938E-013
 0.910938E-013
 0.910938E-013
 0.910938E-013
 0.910938E-013
 0.910938E-013
 0.910938E-013
 0.910939E-013
 0.910939E-013
 0.910939E-013
 0.910939E-013
 0.910939E-013
 0.910939E-013
 0.910939E-013
 0.910939E-013
 0.910939E-013
 0.910939E-013
 0.910939E-013
 0.910939E-013
 0.910939E-013
 0.910939E-013
 0.910939E-013
 0.910939E-013
 0.910939E-013
 0.910939E-013
 0.910939E-013
 0.910939E-013
 0.910939E-013
 0.910939E-013
 0.910939E-013
 0.910939E-013
 0.910939E-013
 0.910939E-013
 0.910939E-013
 0.910939E-013
 0.910939E-013
 0.910939E-013
 0.910938E-013
 0.910938E-013
 0.910938E-013
 0.910938E-013
 0.910938E-013
 0.910938E-013
 0.910938E-013
 0.910938E-013
 0.910938E-013
 0.910938E-013
 0.910938E-013
 0.910938E-013
 0.910938E-013
 0.910938E-013
 0.910938E-013
 0.910938E-013
 0.910938E-013
 0.910938E-013
 0.910938E-013
 0.910938E-013
 0.910938E-013
 0.910938E-013
 0.910938E-013
 0.910938E-013
 0.910938E-013
 0.910938E-013
 0.910938E-013
 0.910938E-013
 0.910938E-013
 0.910938E-013
 0.910938E-013
 0.910938E-013
 0.910938E-013
 0.910938E-013
 0.910938E-013
 0.910938E-013
 0.910938E-013
 0.910938E-013
 0.910938E-013
 0.910938E-013
 0.910938E-013
 0.910938E-013
 0.910940E-013
 0.910923E-013
 0.911020E-013
 0.910564E-013
 0.912345E-013
 0.906808E-013
 0.919821E-013
 0.920790E-013
 0.906341E-013
 0.912507E-013
 0.910520E-013
 0.911029E-013
 0.910922E-013
 0.910941E-013
 0.910938E-013
 0.910938E-013
 0.910938E-013
 0.910938E-013
 0.910938E-013
 0.910938E-013
 0.910938E-013
 0.910938E-013
 0.910938E-013
 0.910938E-013
 0.910938E-013
 0.910938E-013
 0.910939E-013
 0.910939E-013
 0.910939E-013
 0.910939E-013
 0.910939E-013
 0.910939E-013
 0.910939E-013
 0.910939E-013
 0.910939E-013
 0.910939E-013
 0.910939E-013
 0.910939E-013
 0.910939E-013
 0.910939E-013
 0.910939E-013
 0.910939E-013
 0.910939E-013
 0.910939E-013
 0.910940E-013
 0.910940E-013
 0.910940E-013
 0.910940E-013
 0.910940E-013
 0.910940E-013
 0.910940E-013
 0.910940E-013
 0.910940E-013
 0.910941E-013
 0.910941E-013
 0.910941E-013
 0.910941E-013
 0.910941E-013
 0.910941E-013
 0.910941E-013
 0.910941E-013
 0.910941E-013
 0.910941E-013
 0.910942E-013
 0.910942E-013
 0.910942E-013
 0.910942E-013
 0.910942E-013
 0.910942E-013
 0.910942E-013
 0.910942E-013
 0.910942E-013
 0.910942E-013
 0.910942E-013
 0.910942E-013
 0.910942E-013
 0.910942E-013
 0.910942E-013
 0.910942E-013
 0.910941E-013
 0.910941E-013
 0.910941E-013
 0.910941E-013
 0.910941E-013
 0.910941E-013
 0.910941E-013
 0.910941E-013
 0.910941E-013
 0.910941E-013
 0.910940E-013
 0.910940E-013
 0.910940E-013
 0.910940E-013
 0.910940E-013
 0.910940E-013
 0.910940E-013
 0.910940E-013
 0.910940E-013
 0.910939E-013
 0.910939E-013
 0.910939E-013
 0.910939E-013
 0.910939E-013
 0.910939E-013
 0.910939E-013
 0.910939E-013
 0.910939E-013
 0.910939E-013
 0.910939E-013
 0.910939E-013
 0.910939E-013
 0.910939E-013
 0.910939E-013
 0.910939E-013
 0.910939E-013
 0.910939E-013
 0.910939E-013
 0.910938E-013
 0.910938E-013
 0.910938E-013
 0.910938E-013
 0.910938E-013
 0.910938E-013
 0.910938E-013
 0.910938E-013
 0.910938E-013
 0.910938E-013
 0.910938E-013
 0.910941E-013
 0.910922E-013
 0.911029E-013
 0.910520E-013
 0.912507E-013
 0.906341E-013
 0.920790E-013
 0.921756E-013
 0.905875E-013
 0.912669E-013
 0.910477E-013
 0.911039E-013
 0.910920E-013
 0.910941E-013
 0.910938E-013
 0.910938E-013
 0.910938E-013
 0.910938E-013
 0.910938E-013
 0.910938E-013
 0.910938E-013
 0.910938E-013
 0.910938E-013
 0.910938E-013
 0.910938E-013
 0.910938E-013
 0.910938E-013
 0.910938E-013
 0.910938E-013
 0.910939E-013
 0.910939E-013
 0.910939E-013
 0.910939E-013
 0.910939E-013
 0.910939E-013
 0.910939E-013
 0.910939E-013
 0.910939E-013
 0.910939E-013
 0.910939E-013
 0.910939E-013
 0.910939E-013
 0.910939E-013
 0.910939E-013
 0.910940E-013
 0.910940E-013
 0.910940E-013
 0.910940E-013
 0.910940E-013
 0.910940E-013
 0.910940E-013
 0.910940E-013
 0.910941E-013
 0.910941E-013
 0.910941E-013
 0.910941E-013
 0.910941E-013
 0.910941E-013
 0.910941E-013
 0.910941E-013
 0.910942E-013
 0.910942E-013
 0.910942E-013
 0.910942E-013
 0.910942E-013
 0.910942E-013
 0.910942E-013
 0.910942E-013
 0.910942E-013
 0.910942E-013
 0.910942E-013
 0.910942E-013
 0.910942E-013
 0.910942E-013
 0.910942E-013
 0.910942E-013
 0.910942E-013
 0.910942E-013
 0.910942E-013
 0.910942E-013
 0.910942E-013
 0.910942E-013
 0.910941E-013
 0.910941E-013
 0.910941E-013
 0.910941E-013
 0.910941E-013
 0.910941E-013
 0.910941E-013
 0.910941E-013
 0.910940E-013
 0.910940E-013
 0.910940E-013
 0.910940E-013
 0.910940E-013
 0.910940E-013
 0.910940E-013
 0.910940E-013
 0.910939E-013
 0.910939E-013
 0.910939E-013
 0.910939E-013
 0.910939E-013
 0.910939E-013
 0.910939E-013
 0.910939E-013
 0.910939E-013
 0.910939E-013
 0.910939E-013
 0.910939E-013
 0.910939E-013
 0.910939E-013
 0.910939E-013
 0.910938E-013
 0.910938E-013
 0.910938E-013
 0.910938E-013
 0.910938E-013
 0.910938E-013
 0.910938E-013
 0.910938E-013
 0.910938E-013
 0.910938E-013
 0.910938E-013
 0.910938E-013
 0.910938E-013
 0.910938E-013
 0.910938E-013
 0.910941E-013
 0.910920E-013
 0.911039E-013
 0.910477E-013
 0.912668E-013
 0.905876E-013
 0.921756E-013
 0.922719E-013
 0.905412E-013
 0.912830E-013
 0.910433E-013
 0.911048E-013
 0.910918E-013
 0.910942E-013
 0.910938E-013
 0.910938E-013
 0.910938E-013
 0.910938E-013
 0.910938E-013
 0.910938E-013
 0.910938E-013
 0.910938E-013
 0.910938E-013
 0.910938E-013
 0.910938E-013
 0.910938E-013
 0.910938E-013
 0.910938E-013
 0.910939E-013
 0.910939E-013
 0.910939E-013
 0.910939E-013
 0.910939E-013
 0.910939E-013
 0.910939E-013
 0.910939E-013
 0.910939E-013
 0.910939E-013
 0.910939E-013
 0.910939E-013
 0.910939E-013
 0.910939E-013
 0.910940E-013
 0.910940E-013
 0.910940E-013
 0.910940E-013
 0.910940E-013
 0.910940E-013
 0.910940E-013
 0.910940E-013
 0.910941E-013
 0.910941E-013
 0.910941E-013
 0.910941E-013
 0.910941E-013
 0.910941E-013