# vtk DataFile Version 3.0
Solution data
ASCII
DATASET STRUCTURED_GRID
DIMENSIONS 128 128 1
POINTS 16384  double
      0.000004      0.000004      0.000000
      0.000012      0.000004      0.000000
      0.000020      0.000004      0.000000
      0.000027      0.000004      0.000000
      0.000035      0.000004      0.000000
      0.000043      0.000004      0.000000
      0.000051      0.000004      0.000000
      0.000059      0.000004      0.000000
      0.000066      0.000004      0.000000
      0.000074      0.000004      0.000000
      0.000082      0.000004      0.000000
      0.000090      0.000004      0.000000
      0.000098      0.000004      0.000000
      0.000105      0.000004      0.000000
      0.000113      0.000004      0.000000
      0.000121      0.000004      0.000000
      0.000129      0.000004      0.000000
      0.000137      0.000004      0.000000
      0.000145      0.000004      0.000000
      0.000152      0.000004      0.000000
      0.000160      0.000004      0.000000
      0.000168      0.000004      0.000000
      0.000176      0.000004      0.000000
      0.000184      0.000004      0.000000
      0.000191      0.000004      0.000000
      0.000199      0.000004      0.000000
      0.000207      0.000004      0.000000
      0.000215      0.000004      0.000000
      0.000223      0.000004      0.000000
      0.000230      0.000004      0.000000
      0.000238      0.000004      0.000000
      0.000246      0.000004      0.000000
      0.000254      0.000004      0.000000
      0.000262      0.000004      0.000000
      0.000270      0.000004      0.000000
      0.000277      0.000004      0.000000
      0.000285      0.000004      0.000000
      0.000293      0.000004      0.000000
      0.000301      0.000004      0.000000
      0.000309      0.000004      0.000000
      0.000316      0.000004      0.000000
      0.000324      0.000004      0.000000
      0.000332      0.000004      0.000000
      0.000340      0.000004      0.000000
      0.000348      0.000004      0.000000
      0.000355      0.000004      0.000000
      0.000363      0.000004      0.000000
      0.000371      0.000004      0.000000
      0.000379      0.000004      0.000000
      0.000387      0.000004      0.000000
      0.000395      0.000004      0.000000
      0.000402      0.000004      0.000000
      0.000410      0.000004      0.000000
      0.000418      0.000004      0.000000
      0.000426      0.000004      0.000000
      0.000434      0.000004      0.000000
      0.000441      0.000004      0.000000
      0.000449      0.000004      0.000000
      0.000457      0.000004      0.000000
      0.000465      0.000004      0.000000
      0.000473      0.000004      0.000000
      0.000480      0.000004      0.000000
      0.000488      0.000004      0.000000
      0.000496      0.000004      0.000000
      0.000504      0.000004      0.000000
      0.000512      0.000004      0.000000
      0.000520      0.000004      0.000000
      0.000527      0.000004      0.000000
      0.000535      0.000004      0.000000
      0.000543      0.000004      0.000000
      0.000551      0.000004      0.000000
      0.000559      0.000004      0.000000
      0.000566      0.000004      0.000000
      0.000574      0.000004      0.000000
      0.000582      0.000004      0.000000
      0.000590      0.000004      0.000000
      0.000598      0.000004      0.000000
      0.000605      0.000004      0.000000
      0.000613      0.000004      0.000000
      0.000621      0.000004      0.000000
      0.000629      0.000004      0.000000
      0.000637      0.000004      0.000000
      0.000645      0.000004      0.000000
      0.000652      0.000004      0.000000
      0.000660      0.000004      0.000000
      0.000668      0.000004      0.000000
      0.000676      0.000004      0.000000
      0.000684      0.000004      0.000000
      0.000691      0.000004      0.000000
      0.000699      0.000004      0.000000
      0.000707      0.000004      0.000000
      0.000715      0.000004      0.000000
      0.000723      0.000004      0.000000
      0.000730      0.000004      0.000000
      0.000738      0.000004      0.000000
      0.000746      0.000004      0.000000
      0.000754      0.000004      0.000000
      0.000762      0.000004      0.000000
      0.000770      0.000004      0.000000
      0.000777      0.000004      0.000000
      0.000785      0.000004      0.000000
      0.000793      0.000004      0.000000
      0.000801      0.000004      0.000000
      0.000809      0.000004      0.000000
      0.000816      0.000004      0.000000
      0.000824      0.000004      0.000000
      0.000832      0.000004      0.000000
      0.000840      0.000004      0.000000
      0.000848      0.000004      0.000000
      0.000855      0.000004      0.000000
      0.000863      0.000004      0.000000
      0.000871      0.000004      0.000000
      0.000879      0.000004      0.000000
      0.000887      0.000004      0.000000
      0.000895      0.000004      0.000000
      0.000902      0.000004      0.000000
      0.000910      0.000004      0.000000
      0.000918      0.000004      0.000000
      0.000926      0.000004      0.000000
      0.000934      0.000004      0.000000
      0.000941      0.000004      0.000000
      0.000949      0.000004      0.000000
      0.000957      0.000004      0.000000
      0.000965      0.000004      0.000000
      0.000973      0.000004      0.000000
      0.000980      0.000004      0.000000
      0.000988      0.000004      0.000000
      0.000996      0.000004      0.000000
      0.000004      0.000012      0.000000
      0.000012      0.000012      0.000000
      0.000020      0.000012      0.000000
      0.000027      0.000012      0.000000
      0.000035      0.000012      0.000000
      0.000043      0.000012      0.000000
      0.000051      0.000012      0.000000
      0.000059      0.000012      0.000000
      0.000066      0.000012      0.000000
      0.000074      0.000012      0.000000
      0.000082      0.000012      0.000000
      0.000090      0.000012      0.000000
      0.000098      0.000012      0.000000
      0.000105      0.000012      0.000000
      0.000113      0.000012      0.000000
      0.000121      0.000012      0.000000
      0.000129      0.000012      0.000000
      0.000137      0.000012      0.000000
      0.000145      0.000012      0.000000
      0.000152      0.000012      0.000000
      0.000160      0.000012      0.000000
      0.000168      0.000012      0.000000
      0.000176      0.000012      0.000000
      0.000184      0.000012      0.000000
      0.000191      0.000012      0.000000
      0.000199      0.000012      0.000000
      0.000207      0.000012      0.000000
      0.000215      0.000012      0.000000
      0.000223      0.000012      0.000000
      0.000230      0.000012      0.000000
      0.000238      0.000012      0.000000
      0.000246      0.000012      0.000000
      0.000254      0.000012      0.000000
      0.000262      0.000012      0.000000
      0.000270      0.000012      0.000000
      0.000277      0.000012      0.000000
      0.000285      0.000012      0.000000
      0.000293      0.000012      0.000000
      0.000301      0.000012      0.000000
      0.000309      0.000012      0.000000
      0.000316      0.000012      0.000000
      0.000324      0.000012      0.000000
      0.000332      0.000012      0.000000
      0.000340      0.000012      0.000000
      0.000348      0.000012      0.000000
      0.000355      0.000012      0.000000
      0.000363      0.000012      0.000000
      0.000371      0.000012      0.000000
      0.000379      0.000012      0.000000
      0.000387      0.000012      0.000000
      0.000395      0.000012      0.000000
      0.000402      0.000012      0.000000
      0.000410      0.000012      0.000000
      0.000418      0.000012      0.000000
      0.000426      0.000012      0.000000
      0.000434      0.000012      0.000000
      0.000441      0.000012      0.000000
      0.000449      0.000012      0.000000
      0.000457      0.000012      0.000000
      0.000465      0.000012      0.000000
      0.000473      0.000012      0.000000
      0.000480      0.000012      0.000000
      0.000488      0.000012      0.000000
      0.000496      0.000012      0.000000
      0.000504      0.000012      0.000000
      0.000512      0.000012      0.000000
      0.000520      0.000012      0.000000
      0.000527      0.000012      0.000000
      0.000535      0.000012      0.000000
      0.000543      0.000012      0.000000
      0.000551      0.000012      0.000000
      0.000559      0.000012      0.000000
      0.000566      0.000012      0.000000
      0.000574      0.000012      0.000000
      0.000582      0.000012      0.000000
      0.000590      0.000012      0.000000
      0.000598      0.000012      0.000000
      0.000605      0.000012      0.000000
      0.000613      0.000012      0.000000
      0.000621      0.000012      0.000000
      0.000629      0.000012      0.000000
      0.000637      0.000012      0.000000
      0.000645      0.000012      0.000000
      0.000652      0.000012      0.000000
      0.000660      0.000012      0.000000
      0.000668      0.000012      0.000000
      0.000676      0.000012      0.000000
      0.000684      0.000012      0.000000
      0.000691      0.000012      0.000000
      0.000699      0.000012      0.000000
      0.000707      0.000012      0.000000
      0.000715      0.000012      0.000000
      0.000723      0.000012      0.000000
      0.000730      0.000012      0.000000
      0.000738      0.000012      0.000000
      0.000746      0.000012      0.000000
      0.000754      0.000012      0.000000
      0.000762      0.000012      0.000000
      0.000770      0.000012      0.000000
      0.000777      0.000012      0.000000
      0.000785      0.000012      0.000000
[...]
POINT_DATA 16384
SCALARS rhoe double
LOOKUP_TABLE default
 0.916606E-013
 0.912224E-013
 0.915493E-013
 0.915332E-013
 0.916494E-013
 0.917209E-013
 0.918053E-013
 0.918860E-013
 0.919673E-013
 0.920482E-013
 0.921289E-013
 0.922093E-013
 0.922894E-013
 0.923692E-013
 0.924488E-013
 0.925279E-013
 0.926067E-013
 0.926852E-013
 0.927632E-013
 0.928408E-013
 0.929180E-013
 0.929946E-013
 0.930707E-013
 0.931462E-013
 0.932211E-013
 0.932954E-013
 0.933690E-013
 0.934418E-013
 0.935138E-013
 0.935849E-013
 0.936552E-013
 0.937244E-013
 0.937927E-013
 0.938598E-013
 0.939258E-013
 0.939905E-013
 0.940540E-013
 0.941161E-013
 0.941767E-013
 0.942358E-013
 0.942934E-013
 0.943492E-013
 0.944034E-013
 0.944557E-013
 0.945061E-013
 0.945545E-013
 0.946009E-013
 0.946452E-013
 0.946873E-013
 0.947271E-013
 0.947647E-013
 0.947998E-013
 0.948325E-013
 0.948627E-013
 0.948903E-013
 0.949153E-013
 0.949377E-013
 0.949573E-013
 0.949742E-013
 0.949884E-013
 0.949997E-013
 0.950083E-013
 0.950140E-013
 0.950168E-013
 0.950168E-013
 0.950140E-013
 0.950083E-013
 0.949997E-013
 0.949884E-013
 0.949742E-013
 0.949573E-013
 0.949377E-013
 0.949153E-013
 0.948903E-013
 0.948627E-013
 0.948325E-013
 0.947998E-013
 0.947647E-013
 0.947272E-013
 0.946873E-013
 0.946452E-013
 0.946009E-013
 0.945545E-013
 0.945061E-013
 0.944557E-013
 0.944034E-013
 0.943492E-013
 0.942934E-013
 0.942358E-013
 0.941767E-013
 0.941161E-013
 0.940540E-013
 0.939906E-013
 0.939258E-013
 0.938598E-013
 0.937927E-013
 0.937244E-013
 0.936552E-013
 0.935849E-013
 0.935138E-013
 0.934418E-013
 0.933690E-013
 0.932954E-013
 0.932212E-013
 0.931462E-013
 0.930707E-013
 0.929946E-013
 0.929180E-013
 0.928408E-013
 0.927632E-013
 0.926852E-013
 0.926068E-013
 0.925279E-013
 0.924488E-013
 0.923693E-013
 0.922894E-013
 0.922093E-013
 0.921289E-013
 0.920482E-013
 0.919673E-013
 0.918860E-013
 0.918053E-013
 0.917209E-013
 0.916494E-013
 0.915332E-013
 0.915493E-013
 0.912224E-013
 0.916606E-013
 0.912224E-013
 0.907630E-013
 0.909422E-013
 0.907799E-013
 0.907672E-013
 0.906996E-013
 0.906496E-013
 0.905949E-013
 0.905416E-013
 0.904881E-013
 0.904348E-013
 0.903818E-013
 0.903289E-013
 0.902763E-013
 0.902238E-013
 0.901716E-013
 0.901195E-013
 0.900678E-013
 0.900163E-013
 0.899651E-013
 0.899141E-013
 0.898635E-013
 0.898133E-013
 0.897634E-013
 0.897140E-013
 0.896649E-013
 0.896164E-013
 0.895683E-013
 0.895207E-013
 0.894737E-013
 0.894273E-013
 0.893815E-013
 0.893365E-013
 0.892921E-013
 0.892485E-013
 0.892057E-013
 0.891637E-013
 0.891227E-013
 0.890826E-013
 0.890435E-013
 0.890054E-013
 0.889685E-013
 0.889326E-013
 0.888980E-013
 0.888647E-013
 0.888326E-013
 0.888019E-013
 0.887726E-013
 0.887447E-013
 0.887183E-013
 0.886935E-013
 0.886702E-013
 0.886486E-013
 0.886286E-013
 0.886103E-013
 0.885937E-013
 0.885789E-013
 0.885659E-013
 0.885547E-013
 0.885453E-013
 0.885378E-013
 0.885322E-013
 0.885284E-013
 0.885265E-013
 0.885265E-013
 0.885284E-013
 0.885322E-013
 0.885378E-013
 0.885453E-013
 0.885547E-013
 0.885659E-013
 0.885789E-013
 0.885937E-013
 0.886103E-013
 0.886286E-013
 0.886486E-013
 0.886702E-013
 0.886935E-013
 0.887183E-013
 0.887447E-013
 0.887726E-013
 0.888019E-013
 0.888326E-013
 0.888647E-013
 0.888980E-013
 0.889327E-013
 0.889685E-013
 0.890054E-013
 0.890435E-013
 0.890826E-013
 0.891227E-013
 0.891637E-013
 0.892057E-013
 0.892485E-013
 0.892921E-013
 0.893365E-013
 0.893816E-013
 0.894273E-013
 0.894737E-013
 0.895207E-013
 0.895683E-013
 0.896164E-013
 0.896650E-013
 0.897140E-013
 0.897635E-013
 0.898133E-013
 0.898636E-013
 0.899141E-013
 0.899651E-013
 0.900163E-013
 0.900678E-013
 0.901196E-013
 0.901716E-013
 0.902238E-013
 0.902763E-013
 0.903289E-013
 0.903818E-013
 0.904349E-013
 0.904881E-013
 0.905416E-013
 0.905949E-013
 0.906496E-013
 0.906996E-013
 0.907672E-013
 0.907799E-013
 0.909422E-013
 0.907630E-013
 0.912224E-013
 0.915493E-013
 0.909422E-013
 0.913161E-013
 0.911877E-013
 0.912751E-013
 0.912835E-013
 0.913168E-013
 0.913431E-013
 0.913710E-013
 0.913984E-013
 0.914258E-013
 0.914531E-013
 0.914803E-013
 0.915074E-013
 0.915344E-013
 0.915613E-013
 0.915880E-013
 0.916146E-013
 0.916411E-013
 0.916675E-013
 0.916936E-013
 0.917197E-013
 0.917455E-013
 0.917711E-013
 0.917966E-013
 0.918218E-013
 0.918467E-013
 0.918715E-013
 0.918959E-013
 0.919201E-013
 0.919440E-013
 0.919675E-013
 0.919907E-013
 0.920135E-013
 0.920359E-013
 0.920579E-013
 0.920795E-013
 0.921006E-013
 0.921213E-013
 0.921414E-013
 0.921609E-013
 0.921800E-013
 0.921984E-013
 0.922162E-013
 0.922333E-013
 0.922498E-013
 0.922656E-013
 0.922807E-013
 0.922951E-013
 0.923086E-013
 0.923214E-013
 0.923334E-013
 0.923445E-013
 0.923548E-013
 0.923642E-013
 0.923728E-013
 0.923804E-013
 0.923871E-013
 0.923928E-013
 0.923977E-013
 0.924015E-013
 0.924044E-013
 0.924064E-013
 0.924074E-013
 0.924074E-013
 0.924064E-013
 0.924044E-013
 0.924015E-013
 0.923977E-013
 0.923928E-013
 0.923871E-013
 0.923804E-013
 0.923728E-013
 0.923642E-013
 0.923548E-013
 0.923445E-013
 0.923334E-013
 0.923214E-013
 0.923086E-013
 0.922951E-013
 0.922807E-013
 0.922656E-013
 0.922498E-013
 0.922333E-013
 0.922162E-013
 0.921984E-013
 0.921799E-013
 0.921609E-013
 0.921414E-013
 0.921212E-013
 0.921006E-013
 0.920795E-013
 0.920579E-013
 0.920359E-013
 0.920135E-013
 0.919907E-013
 0.919675E-013
 0.919439E-013
 0.919201E-013
 0.918959E-013
 0.918715E-013
 0.918467E-013
 0.918218E-013
 0.917965E-013
 0.917711E-013
 0.917455E-013
 0.917196E-013
 0.916936E-013
 0.916674E-013
 0.916411E-013
 0.916146E-013
 0.915880E-013
 0.915613E-013
 0.915344E-013
 0.915074E-013
 0.914803E-013
 0.914531E-013
 0.914258E-013
 0.913984E-013
 0.913709E-013
 0.913430E-013
 0.913168E-013
 0.912835E-013
 0.912751E-013
 0.911877E-013
 0.913161E-013
 0.909422E-013
 0.915493E-013
 0.915332E-013
 0.907799E-013
 0.911877E-013
 0.909824E-013
 0.910454E-013
 0.910092E-013
 0.910046E-013
 0.909913E-013
 0.909802E-013
 0.909686E-013
 0.909572E-013
 0.909458E-013
 0.909344E-013
 0.909231E-013
 0.909118E-013
 0.909006E-013
 0.908894E-013
 0.908783E-013
 0.908673E-013
 0.908563E-013
 0.908453E-013
 0.908345E-013
 0.908237E-013
 0.908130E-013
 0.908023E-013
 0.907918E-013
 0.907814E-013
 0.907711E-013
 0.907608E-013
 0.907507E-013
 0.907408E-013
 0.907310E-013
 0.907213E-013
 0.907117E-013
 0.907024E-013
 0.906932E-013
 0.906842E-013
 0.906753E-013
 0.906667E-013
 0.906583E-013
 0.906501E-013
 0.906422E-013
 0.906345E-013
 0.906271E-013
 0.906199E-013
 0.906130E-013
 0.906064E-013
 0.906001E-013
 0.905941E-013
 0.905884E-013
 0.905831E-013
 0.905781E-013
 0.905734E-013
 0.905691E-013
 0.905652E-013
 0.905616E-013
 0.905584E-013
 0.905556E-013
 0.905532E-013
 0.905512E-013
 0.905496E-013
 0.905484E-013
 0.905476E-013
 0.905472E-013
 0.905472E-013
 0.905476E-013
 0.905484E-013
 0.905496E-013
 0.905512E-013
 0.905532E-013
 0.905556E-013
 0.905584E-013
 0.905616E-013
 0.905652E-013
 0.905691E-013
 0.905734E-013
 0.905781E-013
 0.905831E-013
 0.905884E-013
 0.905941E-013
 0.906001E-013
 0.906064E-013
 0.906130E-013
 0.906199E-013
 0.906271E-013
 0.906345E-013
 0.906422E-013
 0.906501E-013
 0.906583E-013
 0.906667E-013
 0.906753E-013
 0.906842E-013
 0.906932E-013
 0.907024E-013
 0.907117E-013
 0.907213E-013
 0.907310E-013
 0.907408E-013
 0.907508E-013
 0.907609E-013
 0.907711E-013
 0.907814E-013
 0.907918E-013
 0.908024E-013
 0.908130E-013
 0.908237E-013
 0.908345E-013
 0.908453E-013
 0.908563E-013
 0.908673E-013
 0.908783E-013
 0.908894E-013
 0.909006E-013
 0.909118E-013
 0.909231E-013
 0.909344E-013
 0.909458E-013
 0.909572E-013
 0.909686E-013
 0.909802E-013
 0.909913E-013
 0.910046E-013
 0.910092E-013
 0.910454E-013
 0.909824E-013
 0.911877E-013
 0.907799E-013
 0.915332E-013
 0.916494E-013
 0.907672E-013
 0.912751E-013
 0.910454E-013
 0.911400E-013
 0.911142E-013
 0.911268E-013
 0.911287E-013
 0.911332E-013
 0.911371E-013
 0.911411E-013
 0.911451E-013
 0.911490E-013
 0.911530E-013
 0.911569E-013
 0.911609E-013
 0.911648E-013
 0.911687E-013
 0.911725E-013
 0.911764E-013
 0.911802E-013
 0.911840E-013
 0.911878E-013
 0.911915E-013
 0.911952E-013
 0.911989E-013
 0.912025E-013
 0.912061E-013
 0.912097E-013
 0.912132E-013
 0.912167E-013
 0.912201E-013
 0.912235E-013
 0.912269E-013
 0.912301E-013
 0.912333E-013
 0.912365E-013
 0.912396E-013
 0.912426E-013
 0.912455E-013
 0.912484E-013
 0.912512E-013
 0.912539E-013
 0.912565E-013
 0.912590E-013
 0.912614E-013
 0.912637E-013
 0.912659E-013
 0.912680E-013
 0.912700E-013
 0.912718E-013
 0.912736E-013
 0.912752E-013
 0.912767E-013
 0.912781E-013
 0.912793E-013
 0.912804E-013
 0.912814E-013
 0.912823E-013
 0.912830E-013
 0.912835E-013
 0.912840E-013
 0.912842E-013
 0.912844E-013
 0.912844E-013
 0.912842E-013
 0.912840E-013
 0.912835E-013
 0.912830E-013
 0.912823E-013
 0.912814E-013
 0.912804E-013
 0.912793E-013
 0.912781E-013
 0.912767E-013
 0.912752E-013
 0.912736E-013
 0.912718E-013
 0.912700E-013
 0.912680E-013
 0.912659E-013
 0.912637E-013
 0.912614E-013
 0.912590E-013
 0.912565E-013
 0.912539E-013
 0.912512E-013
 0.912484E-013
 0.912455E-013
 0.912426E-013
 0.912396E-013
 0.912365E-013
 0.912333E-013
 0.912301E-013
 0.912269E-013
 0.912235E-013
 0.912201E-013
 0.912167E-013
 0.912132E-013
 0.912097E-013
 0.912061E-013
 0.912025E-013
 0.911989E-013
 0.911952E-013
 0.911915E-013
 0.911877E-013
 0.911840E-013
 0.911802E-013
 0.911764E-013
 0.911725E-013
 0.911687E-013
 0.911648E-013
 0.911609E-013
 0.911569E-013
 0.911530E-013
 0.911490E-013
 0.911451E-013
 0.911411E-013
 0.911371E-013
 0.911332E-013
 0.911287E-013
 0.911268E-013
 0.911142E-013
 0.911400E-013
 0.910454E-013
 0.912751E-013
 0.907672E-013
 0.916494E-013
 0.917209E-013
 0.906996E-013
 0.912835E-013
 0.910092E-013
 0.911142E-013
 0.910778E-013
 0.910867E-013
 0.910829E-013
 0.910823E-013
 0.910810E-013
 0.910798E-013
 0.910786E-013
 0.910774E-013
 0.910762E-013
 0.910751E-013
 0.910739E-013
 0.910727E-013
 0.910716E-013
 0.910704E-013
 0.910692E-013
 0.910681E-013
 0.910670E-013
 0.910658E-013
 0.910647E-013
 0.910636E-013
 0.910625E-013
 0.910614E-013
 0.910603E-013
 0.910593E-013
 0.910582E-013
 0.910572E-013
 0.910562E-013
 0.910551E-013
 0.910542E-013
 0.910532E-013
 0.910522E-013
 0.910513E-013
 0.910504E-013
 0.910495E-013
 0.910486E-013
 0.910477E-013
 0.910469E-013
 0.910461E-013
 0.910453E-013
 0.910446E-013
 0.910439E-013
 0.910432E-013
 0.910425E-013
 0.910419E-013
 0.910413E-013
 0.910407E-013
 0.910402E-013
 0.910397E-013
 0.910393E-013
 0.910389E-013
 0.910385E-013
 0.910382E-013
 0.910379E-013
 0.910376E-013
 0.910374E-013
 0.910373E-013
 0.910371E-013
 0.910371E-013
 0.910370E-013
 0.910370E-013
 0.910371E-013
 0.910371E-013
 0.910373E-013
 0.910374E-013
 0.910376E-013
 0.910379E-013
 0.910382E-013
 0.910385E-013
 0.910389E-013
 0.910393E-013
 0.910397E-013
 0.910402E-013
 0.910407E-013
 0.910413E-013
 0.910419E-013
 0.910425E-013
 0.910432E-013
 0.910439E-013
 0.910446E-013
 0.910453E-013
 0.910461E-013
 0.910469E-013
 0.910477E-013
 0.910486E-013
 0.910495E-013
 0.910504E-013
 0.910513E-013
 0.910522E-013
 0.910532E-013
 0.910542E-013
 0.910551E-013
 0.910562E-013
 0.910572E-013
 0.910582E-013
 0.910593E-013
 0.910603E-013
 0.910614E-013
 0.910625E-013
 0.910636E-013
 0.910647E-013
 0.910658E-013
 0.910670E-013
 0.910681E-013
 0.910693E-013
 0.910704E-013
 0.910716E-013
 0.910727E-013
 0.910739E-013
 0.910751E-013
 0.910762E-013
 0.910774E-013
 0.910786E-013
 0.910798E-013
 0.910810E-013
 0.910823E-013
 0.910829E-013
 0.910867E-013
 0.910778E-013
 0.911142E-013
 0.910092E-013
 0.912835E-013
 0.906996E-013
 0.917209E-013
 0.918053E-013
 0.906496E-013
 0.913168E-013
 0.910046E-013
 0.911268E-013
 0.910867E-013
 0.910986E-013
 0.910960E-013
 0.910970E-013
 0.910971E-013
 0.910975E-013
 0.910978E-013
 0.910981E-013
 0.910984E-013
 0.910987E-013
 0.910990E-013
 0.910993E-013
 0.910996E-013
 0.910999E-013
 0.911002E-013
 0.911005E-013
 0.911008E-013
 0.911011E-013
 0.911014E-013
 0.911017E-013
 0.911020E-013
 0.911023E-013
 0.911026E-013
 0.911029E-013
 0.911031E-013
 0.911034E-013
 0.911037E-013
 0.911039E-013
 0.911042E-013
 0.911045E-013
 0.911047E-013
 0.911050E-013
 0.911052E-013
 0.911055E-013
 0.911057E-013
 0.911059E-013
 0.911061E-013
 0.911064E-013
 0.911066E-013
 0.911068E-013
 0.911070E-013
 0.911071E-013
 0.911073E-013
 0.911075E-013
 0.911076E-013
 0.911078E-013
 0.911079E-013
 0.911081E-013
 0.911082E-013
 0.911083E-013
 0.911084E-013
 0.911085E-013
 0.911086E-013
 0.911086E-013
 0.911087E-013
 0.911087E-013
 0.911088E-013
 0.911088E-013
 0.911088E-013
 0.911088E-013
 0.911088E-013
 0.911088E-013
 0.911087E-013
 0.911087E-013
 0.911086E-013
 0.911086E-013
 0.911085E-013
 0.911084E-013
 0.911083E-013
 0.911082E-013
 0.911081E-013
 0.911079E-013
 0.911078E-013
 0.911076E-013
 0.911075E-013
 0.911073E-013
 0.911071E-013
 0.911070E-013
 0.911068E-013
 0.911066E-013
 0.911064E-013
 0.911061E-013
 0.911059E-013
 0.911057E-013
 0.911055E-013
 0.911052E-013
 0.911050E-013
 0.911047E-013
 0.911045E-013
 0.911042E-013
 0.911039E-013
 0.911037E-013
 0.911034E-013
 0.911031E-013
 0.911029E-013
 0.911026E-013
 0.911023E-013
 0.911020E-013
 0.911017E-013
 0.911014E-013
 0.911011E-013
 0.911008E-013
 0.911005E-013
 0.911002E-013
 0.910999E-013
 0.910996E-013
 0.910993E-013
 0.910990E-013
 0.910987E-013
 0.910984E-013
 0.910981E-013
 0.910978E-013
 0.910975E-013
 0.910971E-013
 0.910970E-013
 0.910960E-013
 0.910986E-013
 0.910867E-013
 0.911268E-013
 0.910046E-013
 0.913168E-013
 0.906496E-013
 0.918053E-013
 0.918860E-013
 0.905949E-013
 0.913431E-013
 0.909913E-013
 0.911287E-013
 0.910829E-013
 0.910960E-013
 0.910926E-013
 0.910933E-013
 0.910930E-013
 0.910930E-013
 0.910929E-013
 0.910929E-013
 0.910928E-013
 0.910927E-013
 0.910926E-013
 0.910926E-013
 0.910925E-013
 0.910924E-013
 0.910924E-013
 0.910923E-013
 0.910922E-013
 0.910922E-013
 0.910921E-013
 0.910920E-013
 0.910920E-013
 0.910919E-013
 0.910918E-013
 0.910918E-013
 0.910917E-013
 0.910917E-013
 0.910916E-013
 0.910915E-013
 0.910915E-013
 0.910914E-013
 0.910914E-013
 0.910913E-013
 0.910913E-013
 0.910912E-013
 0.910912E-013
 0.910911E-013
 0.910911E-013
 0.910910E-013
 0.910910E-013
 0.910909E-013
 0.910909E-013
 0.910909E-013
 0.910908E-013
 0.910908E-013
 0.910908E-013
 0.910907E-013
 0.910907E-013
 0.910907E-013
 0.910907E-013
 0.910906E-013
 0.910906E-013
 0.910906E-013
 0.910906E-013
 0.910906E-013
 0.910906E-013
 0.910906E-013
 0.910906E-013
 0.910906E-013
 0.910905E-013
 0.910905E-013
 0.910906E-013
 0.910906E-013
 0.910906E-013
 0.910906E-013
 0.910906E-013
 0.910906E-013
 0.910906E-013
 0.910906E-013
 0.910906E-013
 0.910907E-013
 0.910907E-013
 0.910907E-013
 0.910907E-013
 0.910908E-013
 0.910908E-013
 0.910908E-013
 0.910909E-013
 0.910909E-013
 0.910909E-013
 0.910910E-013
 0.910910E-013
 0.910911E-013
 0.910911E-013
 0.910912E-013
 0.910912E-013
 0.910913E-013
 0.910913E-013
 0.910914E-013
 0.910914E-013
 0.910915E-013
 0.910915E-013
 0.910916E-013
 0.910917E-013
 0.910917E-013
 0.910918E-013
 0.910918E-013
 0.910919E-013
 0.910920E-013
 0.910920E-013
 0.910921E-013
 0.910922E-013
 0.910922E-013
 0.910923E-013
 0.910924E-013
 0.910924E-013
 0.910925E-013
 0.910926E-013
 0.910926E-013
 0.910927E-013
 0.910928E-013
 0.910929E-013
 0.910929E-013
 0.910930E-013
 0.910930E-013
 0.910933E-013
 0.910926E-013
 0.910960E-013
 0.910829E-013
 0.911287E-013
 0.909913E-013
 0.913430E-013
 0.905949E-013
 0.918860E-013
 0.919673E-013
 0.905416E-013
 0.913710E-013
 0.909802E-013
 0.911332E-013
 0.910823E-013
 0.910970E-013
 0.910933E-013
 0.910941E-013
 0.910940E-013
 0.910940E-013
 0.910940E-013
 0.910940E-013
 0.910941E-013
 0.910941E-013
 0.910941E-013
 0.910941E-013
 0.910941E-013
 0.910941E-013
 0.910941E-013
 0.910942E-013
 0.910942E-013
 0.910942E-013
 0.910942E-013
 0.910942E-013
 0.910942E-013
 0.910943E-013
 0.910943E-013
 0.910943E-013
 0.910943E-013
 0.910943E-013
 0.910943E-013
 0.910944E-013
 0.910944E-013
 0.910944E-013
 0.910944E-013
 0.910944E-013
 0.910944E-013
 0.910945E-013
 0.910945E-013
 0.910945E-013
 0.910945E-013
 0.910945E-013
 0.910945E-013
 0.910945E-013
 0.910946E-013
 0.910946E-013
 0.910946E-013
 0.910946E-013
 0.910946E-013
 0.910946E-013
 0.910946E-013
 0.910947E-013
 0.910947E-013
 0.910947E-013
 0.910947E-013
 0.910947E-013
 0.910947E-013
 0.910947E-013
 0.910947E-013
 0.910947E-013
 0.910947E-013
 0.910947E-013
 0.910947E-013
 0.910947E-013
 0.910947E-013
 0.910947E-013
 0.910947E-013
 0.910947E-013
 0.910947E-013
 0.910947E-013
 0.910947E-013
 0.910947E-013
 0.910947E-013
 0.910947E-013
 0.910947E-013
 0.910946E-013
 0.910946E-013
 0.910946E-013
 0.910946E-013
 0.910946E-013
 0.910946E-013
 0.910946E-013
 0.910945E-013
 0.910945E-013
 0.910945E-013
 0.910945E-013
 0.910945E-013
 0.910945E-013
 0.910945E-013
 0.910944E-013
 0.910944E-013
 0.910944E-013
 0.910944E-013
 0.910944E-013
 0.910944E-013
 0.910943E-013
 0.910943E-013
 0.910943E-013
 0.910943E-013
 0.910943E-013
 0.910943E-013
 0.910942E-013
 0.910942E-013
 0.910942E-013
 0.910942E-013
 0.910942E-013
 0.910942E-013
 0.910941E-013
 0.910941E-013
 0.910941E-013
 0.910941E-013
 0.910941E-013
 0.910941E-013
 0.910941E-013
 0.910940E-013
 0.910940E-013
 0.910940E-013
 0.910940E-013
 0.910941E-013
 0.910933E-013
 0.910970E-013
 0.910823E-013
 0.911332E-013
 0.909802E-013
 0.913709E-013
 0.905416E-013
 0.919673E-013
 0.920482E-013
 0.904881E-013
 0.913984E-013
 0.909686E-013
 0.911371E-013
 0.910810E-013
 0.910971E-013
 0.910930E-013
 0.910940E-013
 0.910938E-013
 0.910938E-013
 0.910938E-013
 0.910938E-013
 0.910938E-013
 0.910938E-013
 0.910938E-013
 0.910938E-013
 0.910938E-013
 0.910938E-013
 0.910938E-013
 0.910938E-013
 0.910938E-013
 0.910938E-013
 0.910938E-013
 0.910938E-013
 0.910938E-013
 0.910938E-013
 0.910938E-013
 0.910938E-013
 0.910938E-013
 0.910938E-013
 0.910938E-013
 0.910938E-013
 0.910938E-013
 0.910938E-013
 0.910938E-013
 0.910938E-013
 0.910938E-013
 0.910938E-013
 0.910938E-013
 0.910938E-013
 0.910938E-013
 0.910938E-013
 0.910938E-013
 0.910938E-013
 0.910938E-013
 0.910938E-013
 0.910938E-013
 0.910939E-013
 0.910939E-013
 0.910939E-013
 0.910939E-013
 0.910939E-013
 0.910939E-013
 0.910939E-013
 0.910939E-013
 0.910939E-013
 0.910939E-013
 0.910939E-013
 0.910939E-013
 0.910939E-013
 0.910939E-013
 0.910939E-013
 0.910939E-013
 0.910939E-013
 0.910939E-013
 0.910939E-013
 0.910939E-013
 0.910939E-013
 0.910939E-013
 0.910939E-013
 0.910939E-013
 0.910939E-013
 0.910939E-013
 0.910939E-013
 0.910939E-013
 0.910939E-013
 0.910939E-013
 0.910939E-013
 0.910939E-013
 0.910938E-013
 0.910938E-013
 0.910938E-013
 0.910938E-013
 0.910938E-013
 0.910938E-013
 0.910938E-013
 0.910938E-013
 0.910938E-013
 0.910938E-013
 0.910938E-013
 0.910938E-013
 0.910938E-013
 0.910938E-013
 0.910938E-013
 0.910938E-013
 0.910938E-013
 0.910938E-013
 0.910938E-013
 0.910938E-013
 0.910938E-013
 0.910938E-013
 0.910938E-013
 0.910938E-013
 0.910938E-013
 0.910938E-013
 0.910938E-013
 0.910938E-013
 0.910938E-013
 0.910938E-013
 0.910938E-013
 0.910938E-013
 0.910938E-013
 0.910938E-013
 0.910938E-013
 0.910938E-013
 0.910938E-013
 0.910938E-013
 0.910938E-013
 0.910940E-013
 0.910930E-013
 0.910971E-013
 0.910810E-013
 0.911371E-013
 0.909686E-013
 0.913984E-013
 0.904881E-013
 0.920482E-013
 0.921289E-013
 0.904348E-013
 0.914258E-013
 0.909572E-013
 0.911411E-013
 0.910798E-013
 0.910975E-013
 0.910930E-013
 0.910940E-013
 0.910938E-013
 0.910938E-013
 0.910938E-013
 0.910938E-013
 0.910938E-013
 0.910938E-013
 0.910938E-013
 0.910938E-013
 0.910939E-013
 0.910939E-013
 0.910939E-013
 0.910939E-013
 0.910939E-013
 0.910939E-013
 0.910939E-013
 0.910939E-013
 0.910939E-013
 0.910939E-013
 0.910939E-013
 0.910939E-013
 0.910939E-013
 0.910939E-013
 0.910939E-013
 0.910939E-013
 0.910939E-013
 0.910939E-013
 0.910939E-013
 0.910939E-013
 0.910939E-013
 0.910939E-013
 0.910939E-013
 0.910940E-013
 0.910940E-013
 0.910940E-013
 0.910940E-013
 0.910940E-013
 0.910940E-013
 0.910940E-013
 0.910940E-013
 0.910940E-013