# vtk DataFile Version 3.0
Solution data
ASCII
DATASET STRUCTURED_GRID
DIMENSIONS 128 128 1
POINTS 16384  double
      0.000004      0.000004      0.000000
      0.000012      0.000004      0.000000
      0.000020      0.000004      0.000000
      0.000027      0.000004      0.000000
      0.000035      0.000004      0.000000
      0.000043      0.000004      0.000000
      0.000051      0.000004      0.000000
      0.000059      0.000004      0.000000
      0.000066      0.000004      0.000000
      0.000074      0.000004      0.000000
      0.000082      0.000004      0.000000
      0.000090      0.000004      0.000000
      0.000098      0.000004      0.000000
      0.000105      0.000004      0.000000
      0.000113      0.000004      0.000000
      0.000121      0.000004      0.000000
      0.000129      0.000004      0.000000
      0.000137      0.000004      0.000000
      0.000145      0.000004      0.000000
      0.000152      0.000004      0.000000
      0.000160      0.000004      0.000000
      0.000168      0.000004      0.000000
      0.000176      0.000004      0.000000
      0.000184      0.000004      0.000000
      0.000191      0.000004      0.000000
      0.000199      0.000004      0.000000
      0.000207      0.000004      0.000000
      0.000215      0.000004      0.000000
      0.000223      0.000004      0.000000
      0.000230      0.000004      0.000000
      0.000238      0.000004      0.000000
      0.000246      0.000004      0.000000
      0.000254      0.000004      0.000000
      0.000262      0.000004      0.000000
      0.000270      0.000004      0.000000
      0.000277      0.000004      0.000000
      0.000285      0.000004      0.000000
      0.000293      0.000004      0.000000
      0.000301      0.000004      0.000000
      0.000309      0.000004      0.000000
      0.000316      0.000004      0.000000
      0.000324      0.000004      0.000000
      0.000332      0.000004      0.000000
      0.000340      0.000004      0.000000
      0.000348      0.000004      0.000000
      0.000355      0.000004      0.000000
      0.000363      0.000004      0.000000
      0.000371      0.000004      0.000000
      0.000379      0.000004      0.000000
      0.000387      0.000004      0.000000
      0.000395      0.000004      0.000000
      0.000402      0.000004      0.000000
      0.000410      0.000004      0.000000
      0.000418      0.000004      0.000000
      0.000426      0.000004      0.000000
      0.000434      0.000004      0.000000
      0.000441      0.000004      0.000000
      0.000449      0.000004      0.000000
      0.000457      0.000004      0.000000
      0.000465      0.000004      0.000000
      0.000473      0.000004      0.000000
      0.000480      0.000004      0.000000
      0.000488      0.000004      0.000000
      0.000496      0.000004      0.000000
      0.000504      0.000004      0.000000
      0.000512      0.000004      0.000000
      0.000520      0.000004      0.000000
      0.000527      0.000004      0.000000
      0.000535      0.000004      0.000000
      0.000543      0.000004      0.000000
      0.000551      0.000004      0.000000
      0.000559      0.000004      0.000000
      0.000566      0.000004      0.000000
      0.000574      0.000004      0.000000
      0.000582      0.000004      0.000000
      0.000590      0.000004      0.000000
      0.000598      0.000004      0.000000
      0.000605      0.000004      0.000000
      0.000613      0.000004      0.000000
      0.000621      0.000004      0.000000
      0.000629      0.000004      0.000000
      0.000637      0.000004      0.000000
      0.000645      0.000004      0.000000
      0.000652      0.000004      0.000000
      0.000660      0.000004      0.000000
      0.000668      0.000004      0.000000
      0.000676      0.000004      0.000000
      0.000684      0.000004      0.000000
      0.000691      0.000004      0.000000
      0.000699      0.000004      0.000000
      0.000707      0.000004      0.000000
      0.000715      0.000004      0.000000
      0.000723      0.000004      0.000000
      0.000730      0.000004      0.000000
      0.000738      0.000004      0.000000
      0.000746      0.000004      0.000000
      0.000754      0.000004      0.000000
      0.000762      0.000004      0.000000
      0.000770      0.000004      0.000000
      0.000777      0.000004      0.000000
      0.000785      0.000004      0.000000
      0.000793      0.000004      0.000000
      0.000801      0.000004      0.000000
      0.000809      0.000004      0.000000
      0.000816      0.000004      0.000000
      0.000824      0.000004      0.000000
      0.000832      0.000004      0.000000
      0.000840      0.000004      0.000000
      0.000848      0.000004      0.000000
      0.000855      0.000004      0.000000
      0.000863      0.000004      0.000000
      0.000871      0.000004      0.000000
      0.000879      0.000004      0.000000
      0.000887      0.000004      0.000000
      0.000895      0.000004      0.000000
      0.000902      0.000004      0.000000
      0.000910      0.000004      0.000000
      0.000918      0.000004      0.000000
      0.000926      0.000004      0.000000
      0.000934      0.000004      0.000000
      0.000941      0.000004      0.000000
      0.000949      0.000004      0.000000
      0.000957      0.000004      0.000000
      0.000965      0.000004      0.000000
      0.000973      0.000004      0.000000
      0.000980      0.000004      0.000000
      0.000988      0.000004      0.000000
      0.000996      0.000004      0.000000
      0.000004      0.000012      0.000000
      0.000012      0.000012      0.000000
      0.000020      0.000012      0.000000
      0.000027      0.000012      0.000000
      0.000035      0.000012      0.000000
      0.000043      0.000012      0.000000
      0.000051      0.000012      0.000000
      0.000059      0.000012      0.000000
      0.000066      0.000012      0.000000
      0.000074      0.000012      0.000000
      0.000082      0.000012      0.000000
      0.000090      0.000012      0.000000
      0.000098      0.000012      0.000000
      0.000105      0.000012      0.000000
      0.000113      0.000012      0.000000
      0.000121      0.000012      0.000000
      0.000129      0.000012      0.000000
      0.000137      0.000012      0.000000
      0.000145      0.000012      0.000000
      0.000152      0.000012      0.000000
      0.000160      0.000012      0.000000
      0.000168      0.000012      0.000000
      0.000176      0.000012      0.000000
      0.000184      0.000012      0.000000
      0.000191      0.000012      0.000000
      0.000199      0.000012      0.000000
      0.000207      0.000012      0.000000
      0.000215      0.000012      0.000000
      0.000223      0.000012      0.000000
      0.000230      0.000012      0.000000
      0.000238      0.000012      0.000000
      0.000246      0.000012      0.000000
      0.000254      0.000012      0.000000
      0.000262      0.000012      0.000000
      0.000270      0.000012      0.000000
      0.000277      0.000012      0.000000
      0.000285      0.000012      0.000000
      0.000293      0.000012      0.000000
      0.000301      0.000012      0.000000
      0.000309      0.000012      0.000000
      0.000316      0.000012      0.000000
      0.000324      0.000012      0.000000
      0.000332      0.000012      0.000000
      0.000340      0.000012      0.000000
      0.000348      0.000012      0.000000
      0.000355      0.000012      0.000000
      0.000363      0.000012      0.000000
      0.000371      0.000012      0.000000
      0.000379      0.000012      0.000000
      0.000387      0.000012      0.000000
      0.000395      0.000012      0.000000
      0.000402      0.000012      0.000000
      0.000410      0.000012      0.000000
      0.000418      0.000012      0.000000
      0.000426      0.000012      0.000000
      0.000434      0.000012      0.000000
      0.000441      0.000012      0.000000
      0.000449      0.000012      0.000000
      0.000457      0.000012      0.000000
      0.000465      0.000012      0.000000
      0.000473      0.000012      0.000000
      0.000480      0.000012      0.000000
      0.000488      0.000012      0.000000
      0.000496      0.000012      0.000000
      0.000504      0.000012      0.000000
      0.000512      0.000012      0.000000
      0.000520      0.000012      0.000000
      0.000527      0.000012      0.000000
      0.000535      0.000012      0.000000
      0.000543      0.000012      0.000000
      0.000551      0.000012      0.000000
      0.000559      0.000012      0.000000
      0.000566      0.000012      0.000000
      0.000574      0.000012      0.000000
      0.000582      0.000012      0.000000
      0.000590      0.000012      0.000000
      0.000598      0.000012      0.000000
      0.000605      0.000012      0.000000
      0.000613      0.000012      0.000000
      0.000621      0.000012      0.000000
      0.000629      0.000012      0.000000
      0.000637      0.000012      0.000000
      0.000645      0.000012      0.000000
      0.000652      0.000012      0.000000
      0.000660      0.000012      0.000000
      0.000668      0.000012      0.000000
      0.000676      0.000012      0.000000
      0.000684      0.000012      0.000000
      0.000691      0.000012      0.000000
      0.000699      0.000012      0.000000
      0.000707      0.000012      0.000000
      0.000715      0.000012      0.000000
      0.000723      0.000012      0.000000
      0.000730      0.000012      0.000000
      0.000738      0.000012      0.000000
      0.000746      0.000012      0.000000
      0.000754      0.000012      0.000000
      0.000762      0.000012      0.000000
      0.000770      0.000012      0.000000
      0.000777      0.000012      0.000000
      0.000785      0.000012      0.000000
[...]
POINT_DATA 16384
SCALARS rhoe double
LOOKUP_TABLE default
 0.911364E-013
 0.911349E-013
 0.911557E-013
 0.911760E-013
 0.911964E-013
 0.912167E-013
 0.912370E-013
 0.912572E-013
 0.912775E-013
 0.912978E-013
 0.913181E-013
 0.913383E-013
 0.913586E-013
 0.913788E-013
 0.913990E-013
 0.914191E-013
 0.914393E-013
 0.914594E-013
 0.914794E-013
 0.914994E-013
 0.915194E-013
 0.915393E-013
 0.915591E-013
 0.915788E-013
 0.915984E-013
 0.916180E-013
 0.916374E-013
 0.916566E-013
 0.916757E-013
 0.916947E-013
 0.917135E-013
 0.917320E-013
 0.917504E-013
 0.917685E-013
 0.917864E-013
 0.918040E-013
 0.918213E-013
 0.918383E-013
 0.918549E-013
 0.918712E-013
 0.918871E-013
 0.919025E-013
 0.919176E-013
 0.919321E-013
 0.919462E-013
 0.919598E-013
 0.919728E-013
 0.919853E-013
 0.919971E-013
 0.920084E-013
 0.920191E-013
 0.920290E-013
 0.920383E-013
 0.920469E-013
 0.920548E-013
 0.920620E-013
 0.920684E-013
 0.920740E-013
 0.920789E-013
 0.920829E-013
 0.920862E-013
 0.920887E-013
 0.920903E-013
 0.920911E-013
 0.920911E-013
 0.920903E-013
 0.920887E-013
 0.920862E-013
 0.920830E-013
 0.920789E-013
 0.920741E-013
 0.920685E-013
 0.920621E-013
 0.920549E-013
 0.920470E-013
 0.920384E-013
 0.920291E-013
 0.920192E-013
 0.920085E-013
 0.919973E-013
 0.919854E-013
 0.919729E-013
 0.919599E-013
 0.919464E-013
 0.919323E-013
 0.919177E-013
 0.919027E-013
 0.918872E-013
 0.918714E-013
 0.918551E-013
 0.918385E-013
 0.918215E-013
 0.918042E-013
 0.917866E-013
 0.917687E-013
 0.917506E-013
 0.917323E-013
 0.917137E-013
 0.916949E-013
 0.916760E-013
 0.916568E-013
 0.916376E-013
 0.916182E-013
 0.915987E-013
 0.915790E-013
 0.915593E-013
 0.915395E-013
 0.915196E-013
 0.914996E-013
 0.914796E-013
 0.914596E-013
 0.914395E-013
 0.914193E-013
 0.913991E-013
 0.913789E-013
 0.913587E-013
 0.913385E-013
 0.913182E-013
 0.912979E-013
 0.912776E-013
 0.912574E-013
 0.912370E-013
 0.912167E-013
 0.911964E-013
 0.911761E-013
 0.911558E-013
 0.911350E-013
 0.911364E-013
 0.911349E-013
 0.910920E-013
 0.910925E-013
 0.910920E-013
 0.910915E-013
 0.910911E-013
 0.910906E-013
 0.910902E-013
 0.910897E-013
 0.910893E-013
 0.910888E-013
 0.910884E-013
 0.910879E-013
 0.910875E-013
 0.910870E-013
 0.910866E-013
 0.910861E-013
 0.910857E-013
 0.910853E-013
 0.910848E-013
 0.910844E-013
 0.910840E-013
 0.910836E-013
 0.910832E-013
 0.910828E-013
 0.910824E-013
 0.910820E-013
 0.910816E-013
 0.910812E-013
 0.910809E-013
 0.910805E-013
 0.910802E-013
 0.910798E-013
 0.910795E-013
 0.910792E-013
 0.910789E-013
 0.910786E-013
 0.910784E-013
 0.910781E-013
 0.910778E-013
 0.910776E-013
 0.910774E-013
 0.910772E-013
 0.910770E-013
 0.910768E-013
 0.910766E-013
 0.910765E-013
 0.910763E-013
 0.910762E-013
 0.910760E-013
 0.910759E-013
 0.910758E-013
 0.910757E-013
 0.910757E-013
 0.910756E-013
 0.910755E-013
 0.910755E-013
 0.910754E-013
 0.910754E-013
 0.910753E-013
 0.910753E-013
 0.910753E-013
 0.910753E-013
 0.910753E-013
 0.910753E-013
 0.910753E-013
 0.910753E-013
 0.910753E-013
 0.910753E-013
 0.910754E-013
 0.910754E-013
 0.910755E-013
 0.910755E-013
 0.910756E-013
 0.910756E-013
 0.910757E-013
 0.910758E-013
 0.910759E-013
 0.910760E-013
 0.910762E-013
 0.910763E-013
 0.910764E-013
 0.910766E-013
 0.910768E-013
 0.910770E-013
 0.910772E-013
 0.910774E-013
 0.910776E-013
 0.910778E-013
 0.910781E-013
 0.910783E-013
 0.910786E-013
 0.910789E-013
 0.910792E-013
 0.910795E-013
 0.910798E-013
 0.910802E-013
 0.910805E-013
 0.910809E-013
 0.910812E-013
 0.910816E-013
 0.910820E-013
 0.910824E-013
 0.910828E-013
 0.910832E-013
 0.910836E-013
 0.910840E-013
 0.910844E-013
 0.910848E-013
 0.910853E-013
 0.910857E-013
 0.910861E-013
 0.910866E-013
 0.910870E-013
 0.910874E-013
 0.910879E-013
 0.910883E-013
 0.910888E-013
 0.910892E-013
 0.910897E-013
 0.910902E-013
 0.910906E-013
 0.910911E-013
 0.910915E-013
 0.910920E-013
 0.910925E-013
 0.910920E-013
 0.911350E-013
 0.911557E-013
 0.910925E-013
 0.910939E-013
 0.910939E-013
 0.910939E-013
 0.910939E-013
 0.910939E-013
 0.910939E-013
 0.910940E-013
 0.910940E-013
 0.910940E-013
 0.910940E-013
 0.910940E-013
 0.910940E-013
 0.910941E-013
 0.910941E-013
 0.910941E-013
 0.910942E-013
 0.910942E-013
 0.910942E-013
 0.910943E-013
 0.910943E-013
 0.910944E-013
 0.910944E-013
 0.910945E-013
 0.910945E-013
 0.910946E-013
 0.910947E-013
 0.910947E-013
 0.910948E-013
 0.910949E-013
 0.910950E-013
 0.910951E-013
 0.910952E-013
 0.910954E-013
 0.910955E-013
 0.910956E-013
 0.910957E-013
 0.910959E-013
 0.910960E-013
 0.910962E-013
 0.910963E-013
 0.910965E-013
 0.910967E-013
 0.910968E-013
 0.910970E-013
 0.910971E-013
 0.910973E-013
 0.910975E-013
 0.910976E-013
 0.910978E-013
 0.910979E-013
 0.910981E-013
 0.910982E-013
 0.910983E-013
 0.910985E-013
 0.910986E-013
 0.910987E-013
 0.910987E-013
 0.910988E-013
 0.910989E-013
 0.910989E-013
 0.910989E-013
 0.910990E-013
 0.910990E-013
 0.910989E-013
 0.910989E-013
 0.910989E-013
 0.910988E-013
 0.910987E-013
 0.910987E-013
 0.910986E-013
 0.910985E-013
 0.910983E-013
 0.910982E-013
 0.910981E-013
 0.910979E-013
 0.910978E-013
 0.910976E-013
 0.910975E-013
 0.910973E-013
 0.910971E-013
 0.910970E-013
 0.910968E-013
 0.910966E-013
 0.910965E-013
 0.910963E-013
 0.910962E-013
 0.910960E-013
 0.910959E-013
 0.910957E-013
 0.910956E-013
 0.910955E-013
 0.910953E-013
 0.910952E-013
 0.910951E-013
 0.910950E-013
 0.910949E-013
 0.910948E-013
 0.910947E-013
 0.910947E-013
 0.910946E-013
 0.910945E-013
 0.910945E-013
 0.910944E-013
 0.910943E-013
 0.910943E-013
 0.910943E-013
 0.910942E-013
 0.910942E-013
 0.910941E-013
 0.910941E-013
 0.910941E-013
 0.910941E-013
 0.910940E-013
 0.910940E-013
 0.910940E-013
 0.910940E-013
 0.910940E-013
 0.910939E-013
 0.910939E-013
 0.910939E-013
 0.910939E-013
 0.910939E-013
 0.910939E-013
 0.910939E-013
 0.910925E-013
 0.911558E-013
 0.911760E-013
 0.910920E-013
 0.910939E-013
 0.910939E-013
 0.910939E-013
 0.910939E-013
 0.910939E-013
 0.910939E-013
 0.910939E-013
 0.910939E-013
 0.910939E-013
 0.910939E-013
 0.910939E-013
 0.910940E-013
 0.910940E-013
 0.910940E-013
 0.910940E-013
 0.910941E-013
 0.910941E-013
 0.910941E-013
 0.910942E-013
 0.910942E-013
 0.910943E-013
 0.910943E-013
 0.910944E-013
 0.910944E-013
 0.910945E-013
 0.910946E-013
 0.910947E-013
 0.910948E-013
 0.910949E-013
 0.910950E-013
 0.910951E-013
 0.910952E-013
 0.910954E-013
 0.910955E-013
 0.910957E-013
 0.910958E-013
 0.910960E-013
 0.910961E-013
 0.910963E-013
 0.910965E-013
 0.910967E-013
 0.910969E-013
 0.910971E-013
 0.910973E-013
 0.910974E-013
 0.910976E-013
 0.910978E-013
 0.910980E-013
 0.910982E-013
 0.910984E-013
 0.910985E-013
 0.910987E-013
 0.910989E-013
 0.910990E-013
 0.910991E-013
 0.910992E-013
 0.910993E-013
 0.910994E-013
 0.910995E-013
 0.910995E-013
 0.910996E-013
 0.910996E-013
 0.910996E-013
 0.910996E-013
 0.910995E-013
 0.910995E-013
 0.910994E-013
 0.910993E-013
 0.910992E-013
 0.910991E-013
 0.910990E-013
 0.910988E-013
 0.910987E-013
 0.910985E-013
 0.910984E-013
 0.910982E-013
 0.910980E-013
 0.910978E-013
 0.910976E-013
 0.910974E-013
 0.910972E-013
 0.910971E-013
 0.910969E-013
 0.910967E-013
 0.910965E-013
 0.910963E-013
 0.910961E-013
 0.910960E-013
 0.910958E-013
 0.910957E-013
 0.910955E-013
 0.910954E-013
 0.910952E-013
 0.910951E-013
 0.910950E-013
 0.910949E-013
 0.910948E-013
 0.910947E-013
 0.910946E-013
 0.910945E-013
 0.910944E-013
 0.910944E-013
 0.910943E-013
 0.910943E-013
 0.910942E-013
 0.910942E-013
 0.910941E-013
 0.910941E-013
 0.910941E-013
 0.910940E-013
 0.910940E-013
 0.910940E-013
 0.910940E-013
 0.910939E-013
 0.910939E-013
 0.910939E-013
 0.910939E-013
 0.910939E-013
 0.910939E-013
 0.910939E-013
 0.910939E-013
 0.910939E-013
 0.910939E-013
 0.910939E-013
 0.910920E-013
 0.911761E-013
 0.911964E-013
 0.910915E-013
 0.910939E-013
 0.910939E-013
 0.910939E-013
 0.910939E-013
 0.910939E-013
 0.910939E-013
 0.910939E-013
 0.910939E-013
 0.910939E-013
 0.910940E-013
 0.910940E-013
 0.910940E-013
 0.910940E-013
 0.910940E-013
 0.910941E-013
 0.910941E-013
 0.910941E-013
 0.910942E-013
 0.910942E-013
 0.910943E-013
 0.910944E-013
 0.910944E-013
 0.910945E-013
 0.910946E-013
 0.910947E-013
 0.910948E-013
 0.910949E-013
 0.910950E-013
 0.910951E-013
 0.910952E-013
 0.910954E-013
 0.910955E-013
 0.910957E-013
 0.910959E-013
 0.910960E-013
 0.910962E-013
 0.910964E-013
 0.910966E-013
 0.910968E-013
 0.910970E-013
 0.910973E-013
 0.910975E-013
 0.910977E-013
 0.910979E-013
 0.910982E-013
 0.910984E-013
 0.910986E-013
 0.910989E-013
 0.910991E-013
 0.910993E-013
 0.910995E-013
 0.910997E-013
 0.910999E-013
 0.911000E-013
 0.911002E-013
 0.911003E-013
 0.911004E-013
 0.911005E-013
 0.911006E-013
 0.911007E-013
 0.911007E-013
 0.911007E-013
 0.911007E-013
 0.911007E-013
 0.911007E-013
 0.911006E-013
 0.911005E-013
 0.911004E-013
 0.911003E-013
 0.911002E-013
 0.911000E-013
 0.910999E-013
 0.910997E-013
 0.910995E-013
 0.910993E-013
 0.910991E-013
 0.910989E-013
 0.910986E-013
 0.910984E-013
 0.910982E-013
 0.910979E-013
 0.910977E-013
 0.910975E-013
 0.910973E-013
 0.910970E-013
 0.910968E-013
 0.910966E-013
 0.910964E-013
 0.910962E-013
 0.910960E-013
 0.910958E-013
 0.910957E-013
 0.910955E-013
 0.910954E-013
 0.910952E-013
 0.910951E-013
 0.910950E-013
 0.910949E-013
 0.910947E-013
 0.910947E-013
 0.910946E-013
 0.910945E-013
 0.910944E-013
 0.910943E-013
 0.910943E-013
 0.910942E-013
 0.910942E-013
 0.910941E-013
 0.910941E-013
 0.910941E-013
 0.910940E-013
 0.910940E-013
 0.910940E-013
 0.910940E-013
 0.910939E-013
 0.910939E-013
 0.910939E-013
 0.910939E-013
 0.910939E-013
 0.910939E-013
 0.910939E-013
 0.910939E-013
 0.910939E-013
 0.910939E-013
 0.910915E-013
 0.911964E-013
 0.912167E-013
 0.910911E-013
 0.910939E-013
 0.910939E-013
 0.910939E-013
 0.910939E-013
 0.910939E-013
 0.910939E-013
 0.910939E-013
 0.910939E-013
 0.910940E-013
 0.910940E-013
 0.910940E-013
 0.910940E-013
 0.910940E-013
 0.910941E-013
 0.910941E-013
 0.910942E-013
 0.910942E-013
 0.910943E-013
 0.910943E-013
 0.910944E-013
 0.910945E-013
 0.910945E-013
 0.910946E-013
 0.910947E-013
 0.910948E-013
 0.910949E-013
 0.910951E-013
 0.910952E-013
 0.910953E-013
 0.910955E-013
 0.910957E-013
 0.910959E-013
 0.910960E-013
 0.910962E-013
 0.910965E-013
 0.910967E-013
 0.910969E-013
 0.910972E-013
 0.910974E-013
 0.910977E-013
 0.910979E-013
 0.910982E-013
 0.910985E-013
 0.910988E-013
 0.910990E-013
 0.910993E-013
 0.910996E-013
 0.910998E-013
 0.911001E-013
 0.911004E-013
 0.911006E-013
 0.911008E-013
 0.911010E-013
 0.911012E-013
 0.911014E-013
 0.911016E-013
 0.911017E-013
 0.911019E-013
 0.911020E-013
 0.911020E-013
 0.911021E-013
 0.911021E-013
 0.911021E-013
 0.911021E-013
 0.911020E-013
 0.911020E-013
 0.911019E-013
 0.911017E-013
 0.911016E-013
 0.911014E-013
 0.911012E-013
 0.911010E-013
 0.911008E-013
 0.911006E-013
 0.911004E-013
 0.911001E-013
 0.910998E-013
 0.910996E-013
 0.910993E-013
 0.910990E-013
 0.910987E-013
 0.910985E-013
 0.910982E-013
 0.910979E-013
 0.910977E-013
 0.910974E-013
 0.910972E-013
 0.910969E-013
 0.910967E-013
 0.910964E-013
 0.910962E-013
 0.910960E-013
 0.910958E-013
 0.910957E-013
 0.910955E-013
 0.910953E-013
 0.910952E-013
 0.910951E-013
 0.910949E-013
 0.910948E-013
 0.910947E-013
 0.910946E-013
 0.910945E-013
 0.910944E-013
 0.910944E-013
 0.910943E-013
 0.910942E-013
 0.910942E-013
 0.910941E-013
 0.910941E-013
 0.910941E-013
 0.910940E-013
 0.910940E-013
 0.910940E-013
 0.910940E-013
 0.910939E-013
 0.910939E-013
 0.910939E-013
 0.910939E-013
 0.910939E-013
 0.910939E-013
 0.910939E-013
 0.910939E-013
 0.910939E-013
 0.910911E-013
 0.912167E-013
 0.912370E-013
 0.910906E-013
 0.910939E-013
 0.910939E-013
 0.910939E-013
 0.910939E-013
 0.910939E-013
 0.910939E-013
 0.910939E-013
 0.910940E-013
 0.910940E-013
 0.910940E-013
 0.910940E-013
 0.910941E-013
 0.910941E-013
 0.910941E-013
 0.910942E-013
 0.910942E-013
 0.910943E-013
 0.910943E-013
 0.910944E-013
 0.910945E-013
 0.910946E-013
 0.910947E-013
 0.910948E-013
 0.910949E-013
 0.910950E-013
 0.910951E-013
 0.910953E-013
 0.910955E-013
 0.910956E-013
 0.910958E-013
 0.910960E-013
 0.910962E-013
 0.910965E-013
 0.910967E-013
 0.910970E-013
 0.910972E-013
 0.910975E-013
 0.910978E-013
 0.910981E-013
 0.910984E-013
 0.910987E-013
 0.910990E-013
 0.910994E-013
 0.910997E-013
 0.911000E-013
 0.911004E-013
 0.911007E-013
 0.911010E-013
 0.911013E-013
 0.911016E-013
 0.911019E-013
 0.911022E-013
 0.911024E-013
 0.911027E-013
 0.911029E-013
 0.911031E-013
 0.911033E-013
 0.911034E-013
 0.911035E-013
 0.911036E-013
 0.911037E-013
 0.911037E-013
 0.911037E-013
 0.911037E-013
 0.911036E-013
 0.911035E-013
 0.911034E-013
 0.911033E-013
 0.911031E-013
 0.911029E-013
 0.911027E-013
 0.911024E-013
 0.911022E-013
 0.911019E-013
 0.911016E-013
 0.911013E-013
 0.911010E-013
 0.911007E-013
 0.911004E-013
 0.911000E-013
 0.910997E-013
 0.910994E-013
 0.910990E-013
 0.910987E-013
 0.910984E-013
 0.910981E-013
 0.910978E-013
 0.910975E-013
 0.910972E-013
 0.910970E-013
 0.910967E-013
 0.910965E-013
 0.910962E-013
 0.910960E-013
 0.910958E-013
 0.910956E-013
 0.910954E-013
 0.910953E-013
 0.910951E-013
 0.910950E-013
 0.910949E-013
 0.910948E-013
 0.910946E-013
 0.910946E-013
 0.910945E-013
 0.910944E-013
 0.910943E-013
 0.910943E-013
 0.910942E-013
 0.910942E-013
 0.910941E-013
 0.910941E-013
 0.910940E-013
 0.910940E-013
 0.910940E-013
 0.910940E-013
 0.910939E-013
 0.910939E-013
 0.910939E-013
 0.910939E-013
 0.910939E-013
 0.910939E-013
 0.910939E-013
 0.910939E-013
 0.910906E-013
 0.912371E-013
 0.912572E-013
 0.910902E-013
 0.910939E-013
 0.910939E-013
 0.910939E-013
 0.910939E-013
 0.910939E-013
 0.910939E-013
 0.910940E-013
 0.910940E-013
 0.910940E-013
 0.910940E-013
 0.910941E-013
 0.910941E-013
 0.910941E-013
 0.910942E-013
 0.910942E-013
 0.910943E-013
 0.910944E-013
 0.910944E-013
 0.910945E-013
 0.910946E-013
 0.910947E-013
 0.910948E-013
 0.910949E-013
 0.910951E-013
 0.910952E-013
 0.910954E-013
 0.910956E-013
 0.910958E-013
 0.910960E-013
 0.910962E-013
 0.910964E-013
 0.910967E-013
 0.910970E-013
 0.910973E-013
 0.910976E-013
 0.910979E-013
 0.910982E-013
 0.910985E-013
 0.910989E-013
 0.910993E-013
 0.910996E-013
 0.911000E-013
 0.911004E-013
 0.911008E-013
 0.911012E-013
 0.911016E-013
 0.911020E-013
 0.911024E-013
 0.911027E-013
 0.911031E-013
 0.911034E-013
 0.911038E-013
 0.911041E-013
 0.911044E-013
 0.911046E-013
 0.911048E-013
 0.911050E-013
 0.911052E-013
 0.911054E-013
 0.911055E-013
 0.911055E-013
 0.911056E-013
 0.911056E-013
 0.911055E-013
 0.911055E-013
 0.911054E-013
 0.911052E-013
 0.911050E-013
 0.911048E-013
 0.911046E-013
 0.911044E-013
 0.911041E-013
 0.911038E-013
 0.911034E-013
 0.911031E-013
 0.911027E-013
 0.911024E-013
 0.911020E-013
 0.911016E-013
 0.911012E-013
 0.911008E-013
 0.911004E-013
 0.911000E-013
 0.910996E-013
 0.910993E-013
 0.910989E-013
 0.910985E-013
 0.910982E-013
 0.910979E-013
 0.910975E-013
 0.910972E-013
 0.910970E-013
 0.910967E-013
 0.910964E-013
 0.910962E-013
 0.910960E-013
 0.910958E-013
 0.910956E-013
 0.910954E-013
 0.910952E-013
 0.910951E-013
 0.910949E-013
 0.910948E-013
 0.910947E-013
 0.910946E-013
 0.910945E-013
 0.910944E-013
 0.910943E-013
 0.910943E-013
 0.910942E-013
 0.910942E-013
 0.910941E-013
 0.910941E-013
 0.910940E-013
 0.910940E-013
 0.910940E-013
 0.910940E-013
 0.910939E-013
 0.910939E-013
 0.910939E-013
 0.910939E-013
 0.910939E-013
 0.910939E-013
 0.910939E-013
 0.910901E-013
 0.912574E-013
 0.912775E-013
 0.910897E-013
 0.910940E-013
 0.910939E-013
 0.910939E-013
 0.910939E-013
 0.910939E-013
 0.910940E-013
 0.910940E-013
 0.910940E-013
 0.910940E-013
 0.910941E-013
 0.910941E-013
 0.910941E-013
 0.910942E-013
 0.910942E-013
 0.910943E-013
 0.910944E-013
 0.910944E-013
 0.910945E-013
 0.910946E-013
 0.910947E-013
 0.910949E-013
 0.910950E-013
 0.910951E-013
 0.910953E-013
 0.910955E-013
 0.910957E-013
 0.910959E-013
 0.910961E-013
 0.910964E-013
 0.910966E-013
 0.910969E-013
 0.910972E-013
 0.910975E-013
 0.910979E-013
 0.910982E-013
 0.910986E-013
 0.910990E-013
 0.910994E-013
 0.910998E-013
 0.911003E-013
 0.911007E-013
 0.911012E-013
 0.911016E-013
 0.911021E-013
 0.911026E-013
 0.911030E-013
 0.911035E-013
 0.911039E-013
 0.911044E-013
 0.911048E-013
 0.911052E-013
 0.911056E-013
 0.911060E-013
 0.911063E-013
 0.911066E-013
 0.911069E-013
 0.911071E-013
 0.911073E-013
 0.911075E-013
 0.911076E-013
 0.911077E-013
 0.911078E-013
 0.911078E-013
 0.911077E-013
 0.911076E-013
 0.911075E-013
 0.911073E-013
 0.911071E-013
 0.911069E-013
 0.911066E-013
 0.911063E-013
 0.911060E-013
 0.911056E-013
 0.911052E-013
 0.911048E-013
 0.911044E-013
 0.911039E-013
 0.911035E-013
 0.911030E-013
 0.911026E-013
 0.911021E-013
 0.911016E-013
 0.911012E-013
 0.911007E-013
 0.911003E-013
 0.910998E-013
 0.910994E-013
 0.910990E-013
 0.910986E-013
 0.910982E-013
 0.910979E-013
 0.910975E-013
 0.910972E-013
 0.910969E-013
 0.910966E-013
 0.910964E-013
 0.910961E-013
 0.910959E-013
 0.910957E-013
 0.910955E-013
 0.910953E-013
 0.910951E-013
 0.910950E-013
 0.910948E-013
 0.910947E-013
 0.910946E-013
 0.910945E-013
 0.910944E-013
 0.910944E-013
 0.910943E-013
 0.910942E-013
 0.910942E-013
 0.910941E-013
 0.910941E-013
 0.910940E-013
 0.910940E-013
 0.910940E-013
 0.910940E-013
 0.910939E-013
 0.910939E-013
 0.910939E-013
 0.910939E-013
 0.910939E-013
 0.910939E-013
 0.910897E-013
 0.912777E-013
 0.912978E-013
 0.910893E-013
 0.910940E-013
 0.910939E-013
 0.910939E-013
 0.910939E-013
 0.910940E-013
 0.910940E-013
 0.910940E-013
 0.910940E-013
 0.910941E-013
 0.910941E-013
 0.910941E-013
 0.910942E-013
 0.910942E-013
 0.910943E-013
 0.910944E-013
 0.910945E-013
 0.910946E-013
 0.910947E-013
 0.910948E-013
 0.910949E-013
 0.910950E-013
 0.910952E-013
 0.910954E-013
 0.910956E-013
 0.910958E-013
 0.910960E-013
 0.910963E-013
 0.910965E-013
 0.910968E-013
 0.910971E-013
 0.910975E-013
 0.910978E-013
 0.910982E-013
 0.910986E-013
 0.910990E-013
 0.910995E-013
 0.911000E-013
 0.911004E-013
 0.911009E-013
 0.911015E-013
 0.911020E-013
 0.911025E-013
 0.911031E-013
 0.911036E-013
 0.911042E-013
 0.911047E-013
 0.911053E-013
 0.911058E-013
 0.911063E-013
 0.911068E-013
 0.911073E-013
 0.911078E-013
 0.911082E-013
 0.911086E-013
 0.911089E-013
 0.911093E-013
 0.911096E-013
 0.911098E-013
 0.911100E-013
 0.911101E-013
 0.911102E-013
 0.911103E-013
 0.911103E-013
 0.911102E-013
 0.911101E-013
 0.911100E-013
 0.911098E-013
 0.911096E-013
 0.911093E-013
 0.911089E-013
 0.911086E-013
 0.911082E-013
 0.911077E-013
 0.911073E-013
 0.911068E-013
 0.911063E-013
 0.911058E-013
 0.911052E-013
 0.911047E-013
 0.911042E-013
 0.911036E-013
 0.911031E-013
 0.911025E-013
 0.911020E-013
 0.911014E-013
 0.911009E-013
 0.911004E-013
 0.910999E-013
 0.910995E-013
 0.910990E-013
 0.910986E-013
 0.910982E-013
 0.910978E-013
 0.910975E-013
 0.910971E-013
 0.910968E-013
 0.910965E-013
 0.910962E-013
 0.910960E-013
 0.910958E-013
 0.910956E-013
 0.910954E-013
 0.910952E-013
 0.910950E-013
 0.910949E-013
 0.910948E-013
 0.910946E-013
 0.910945E-013
 0.910944E-013
 0.910944E-013
 0.910943E-013
 0.910942E-013
 0.910942E-013
 0.910941E-013
 0.910941E-013
 0.910940E-013
 0.910940E-013
 0.910940E-013
 0.910940E-013
 0.910939E-013
 0.910939E-013
 0.910939E-013
 0.910939E-013
 0.910940E-013
 0.910892E-013
 0.912979E-013
 0.913181E-013
 0.910888E-013
 0.910940E-013
 0.910939E-013
 0.910939E-013
 0.910940E-013
 0.910940E-013
 0.910940E-013
 0.910940E-013
 0.910941E-013
 0.910941E-013
 0.910941E-013
 0.910942E-013
 0.910943E-013
 0.910943E-013
 0.910944E-013
 0.910945E-013
 0.910946E-013
 0.910947E-013
 0.910948E-013
 0.910949E-013
 0.910951E-013
 0.910953E-013
 0.910954E-013
 0.910957E-013
 0.910959E-013
 0.910961E-013
 0.910964E-013
 0.910967E-013
 0.910970E-013
 0.910974E-013
 0.910977E-013
 0.910981E-013
 0.910985E-013
 0.910990E-013
 0.910995E-013
 0.911000E-013
 0.911005E-013
 0.911010E-013
 0.911016E-013
 0.911022E-013
 0.911028E-013
 0.911034E-013
 0.911041E-013
 0.911047E-013
 0.911054E-013
 0.911060E-013
 0.911067E-013
 0.911073E-013