# vtk DataFile Version 3.0
Solution data
ASCII
DATASET STRUCTURED_GRID
DIMENSIONS 128 128 1
POINTS 16384  double
      0.000004      0.000004      0.000000
      0.000012      0.000004      0.000000
      0.000020      0.000004      0.000000
      0.000027      0.000004      0.000000
      0.000035      0.000004      0.000000
      0.000043      0.000004      0.000000
      0.000051      0.000004      0.000000
      0.000059      0.000004      0.000000
      0.000066      0.000004      0.000000
      0.000074      0.000004      0.000000
      0.000082      0.000004      0.000000
      0.000090      0.000004      0.000000
      0.000098      0.000004      0.000000
      0.000105      0.000004      0.000000
      0.000113      0.000004      0.000000
      0.000121      0.000004      0.000000
      0.000129      0.000004      0.000000
      0.000137      0.000004      0.000000
      0.000145      0.000004      0.000000
      0.000152      0.000004      0.000000
      0.000160      0.000004      0.000000
      0.000168      0.000004      0.000000
      0.000176      0.000004      0.000000
      0.000184      0.000004      0.000000
      0.000191      0.000004      0.000000
      0.000199      0.000004      0.000000
      0.000207      0.000004      0.000000
      0.000215      0.000004      0.000000
      0.000223      0.000004      0.000000
      0.000230      0.000004      0.000000
      0.000238      0.000004      0.000000
      0.000246      0.000004      0.000000
      0.000254      0.000004      0.000000
      0.000262      0.000004      0.000000
      0.000270      0.000004      0.000000
      0.000277      0.000004      0.000000
      0.000285      0.000004      0.000000
      0.000293      0.000004      0.000000
      0.000301      0.000004      0.000000
      0.000309      0.000004      0.000000
      0.000316      0.000004      0.000000
      0.000324      0.000004      0.000000
      0.000332      0.000004      0.000000
      0.000340      0.000004      0.000000
      0.000348      0.000004      0.000000
      0.000355      0.000004      0.000000
      0.000363      0.000004      0.000000
      0.000371      0.000004      0.000000
      0.000379      0.000004      0.000000
      0.000387      0.000004      0.000000
      0.000395      0.000004      0.000000
      0.000402      0.000004      0.000000
      0.000410      0.000004      0.000000
      0.000418      0.000004      0.000000
      0.000426      0.000004      0.000000
      0.000434      0.000004      0.000000
      0.000441      0.000004      0.000000
      0.000449      0.000004      0.000000
      0.000457      0.000004      0.000000
      0.000465      0.000004      0.000000
      0.000473      0.000004      0.000000
      0.000480      0.000004      0.000000
      0.000488      0.000004      0.000000
      0.000496      0.000004      0.000000
      0.000504      0.000004      0.000000
      0.000512      0.000004      0.000000
      0.000520      0.000004      0.000000
      0.000527      0.000004      0.000000
      0.000535      0.000004      0.000000
      0.000543      0.000004      0.000000
      0.000551      0.000004      0.000000
      0.000559      0.000004      0.000000
      0.000566      0.000004      0.000000
      0.000574      0.000004      0.000000
      0.000582      0.000004      0.000000
      0.000590      0.000004      0.000000
      0.000598      0.000004      0.000000
      0.000605      0.000004      0.000000
      0.000613      0.000004      0.000000
      0.000621      0.000004      0.000000
      0.000629      0.000004      0.000000
      0.000637      0.000004      0.000000
      0.000645      0.000004      0.000000
      0.000652      0.000004      0.000000
      0.000660      0.000004      0.000000
      0.000668      0.000004      0.000000
      0.000676      0.000004      0.000000
      0.000684      0.000004      0.000000
      0.000691      0.000004      0.000000
      0.000699      0.000004      0.000000
      0.000707      0.000004      0.000000
      0.000715      0.000004      0.000000
      0.000723      0.000004      0.000000
      0.000730      0.000004      0.000000
      0.000738      0.000004      0.000000
      0.000746      0.000004      0.000000
      0.000754      0.000004      0.000000
      0.000762      0.000004      0.000000
      0.000770      0.000004      0.000000
      0.000777      0.000004      0.000000
      0.000785      0.000004      0.000000
      0.000793      0.000004      0.000000
      0.000801      0.000004      0.000000
      0.000809      0.000004      0.000000
      0.000816      0.000004      0.000000
      0.000824      0.000004      0.000000
      0.000832      0.000004      0.000000
      0.000840      0.000004      0.000000
      0.000848      0.000004      0.000000
      0.000855      0.000004      0.000000
      0.000863      0.000004      0.000000
      0.000871      0.000004      0.000000
      0.000879      0.000004      0.000000
      0.000887      0.000004      0.000000
      0.000895      0.000004      0.000000
      0.000902      0.000004      0.000000
      0.000910      0.000004      0.000000
      0.000918      0.000004      0.000000
      0.000926      0.000004      0.000000
      0.000934      0.000004      0.000000
      0.000941      0.000004      0.000000
      0.000949      0.000004      0.000000
      0.000957      0.000004      0.000000
      0.000965      0.000004      0.000000
      0.000973      0.000004      0.000000
      0.000980      0.000004      0.000000
      0.000988      0.000004      0.000000
      0.000996      0.000004      0.000000
      0.000004      0.000012      0.000000
      0.000012      0.000012      0.000000
      0.000020      0.000012      0.000000
      0.000027      0.000012      0.000000
      0.000035      0.000012      0.000000
      0.000043      0.000012      0.000000
      0.000051      0.000012      0.000000
      0.000059      0.000012      0.000000
      0.000066      0.000012      0.000000
      0.000074      0.000012      0.000000
      0.000082      0.000012      0.000000
      0.000090      0.000012      0.000000
      0.000098      0.000012      0.000000
      0.000105      0.000012      0.000000
      0.000113      0.000012      0.000000
      0.000121      0.000012      0.000000
      0.000129      0.000012      0.000000
      0.000137      0.000012      0.000000
      0.000145      0.000012      0.000000
      0.000152      0.000012      0.000000
      0.000160      0.000012      0.000000
      0.000168      0.000012      0.000000
      0.000176      0.000012      0.000000
      0.000184      0.000012      0.000000
      0.000191      0.000012      0.000000
      0.000199      0.000012      0.000000
      0.000207      0.000012      0.000000
      0.000215      0.000012      0.000000
      0.000223      0.000012      0.000000
      0.000230      0.000012      0.000000
      0.000238      0.000012      0.000000
      0.000246      0.000012      0.000000
      0.000254      0.000012      0.000000
      0.000262      0.000012      0.000000
      0.000270      0.000012      0.000000
      0.000277      0.000012      0.000000
      0.000285      0.000012      0.000000
      0.000293      0.000012      0.000000
      0.000301      0.000012      0.000000
      0.000309      0.000012      0.000000
      0.000316      0.000012      0.000000
      0.000324      0.000012      0.000000
      0.000332      0.000012      0.000000
      0.000340      0.000012      0.000000
      0.000348      0.000012      0.000000
      0.000355      0.000012      0.000000
      0.000363      0.000012      0.000000
      0.000371      0.000012      0.000000
      0.000379      0.000012      0.000000
      0.000387      0.000012      0.000000
      0.000395      0.000012      0.000000
      0.000402      0.000012      0.000000
      0.000410      0.000012      0.000000
      0.000418      0.000012      0.000000
      0.000426      0.000012      0.000000
      0.000434      0.000012      0.000000
      0.000441      0.000012      0.000000
      0.000449      0.000012      0.000000
      0.000457      0.000012      0.000000
      0.000465      0.000012      0.000000
      0.000473      0.000012      0.000000
      0.000480      0.000012      0.000000
      0.000488      0.000012      0.000000
      0.000496      0.000012      0.000000
      0.000504      0.000012      0.000000
      0.000512      0.000012      0.000000
      0.000520      0.000012      0.000000
      0.000527      0.000012      0.000000
      0.000535      0.000012      0.000000
      0.000543      0.000012      0.000000
      0.000551      0.000012      0.000000
      0.000559      0.000012      0.000000
      0.000566      0.000012      0.000000
      0.000574      0.000012      0.000000
      0.000582      0.000012      0.000000
      0.000590      0.000012      0.000000
      0.000598      0.000012      0.000000
      0.000605      0.000012      0.000000
      0.000613      0.000012      0.000000
      0.000621      0.000012      0.000000
      0.000629      0.000012      0.000000
      0.000637      0.000012      0.000000
      0.000645      0.000012      0.000000
      0.000652      0.000012      0.000000
      0.000660      0.000012      0.000000
      0.000668      0.000012      0.000000
      0.000676      0.000012      0.000000
      0.000684      0.000012      0.000000
      0.000691      0.000012      0.000000
      0.000699      0.000012      0.000000
      0.000707      0.000012      0.000000
      0.000715      0.000012      0.000000
      0.000723      0.000012      0.000000
      0.000730      0.000012      0.000000
      0.000738      0.000012      0.000000
      0.000746      0.000012      0.000000
      0.000754      0.000012      0.000000
      0.000762      0.000012      0.000000
      0.000770      0.000012      0.000000
      0.000777      0.000012      0.000000
      0.000785      0.000012      0.000000
[...]
POINT_DATA 16384
SCALARS rhoe double
LOOKUP_TABLE default
 0.913380E-013
 0.912817E-013
 0.913908E-013
 0.914766E-013
 0.915647E-013
 0.916525E-013
 0.917401E-013
 0.918276E-013
 0.919150E-013
 0.920022E-013
 0.920893E-013
 0.921762E-013
 0.922629E-013
 0.923494E-013
 0.924358E-013
 0.925219E-013
 0.926077E-013
 0.926933E-013
 0.927786E-013
 0.928636E-013
 0.929482E-013
 0.930324E-013
 0.931162E-013
 0.931995E-013
 0.932822E-013
 0.933644E-013
 0.934460E-013
 0.935269E-013
 0.936071E-013
 0.936864E-013
 0.937649E-013
 0.938425E-013
 0.939190E-013
 0.939944E-013
 0.940687E-013
 0.941417E-013
 0.942134E-013
 0.942837E-013
 0.943524E-013
 0.944196E-013
 0.944850E-013
 0.945487E-013
 0.946105E-013
 0.946703E-013
 0.947280E-013
 0.947835E-013
 0.948368E-013
 0.948877E-013
 0.949362E-013
 0.949821E-013
 0.950254E-013
 0.950660E-013
 0.951038E-013
 0.951387E-013
 0.951707E-013
 0.951997E-013
 0.952256E-013
 0.952485E-013
 0.952681E-013
 0.952845E-013
 0.952977E-013
 0.953077E-013
 0.953143E-013
 0.953176E-013
 0.953176E-013
 0.953143E-013
 0.953076E-013
 0.952977E-013
 0.952845E-013
 0.952680E-013
 0.952484E-013
 0.952256E-013
 0.951996E-013
 0.951706E-013
 0.951386E-013
 0.951037E-013
 0.950659E-013
 0.950253E-013
 0.949820E-013
 0.949360E-013
 0.948876E-013
 0.948366E-013
 0.947834E-013
 0.947278E-013
 0.946701E-013
 0.946103E-013
 0.945485E-013
 0.944848E-013
 0.944194E-013
 0.943522E-013
 0.942835E-013
 0.942132E-013
 0.941415E-013
 0.940685E-013
 0.939942E-013
 0.939188E-013
 0.938423E-013
 0.937647E-013
 0.936862E-013
 0.936069E-013
 0.935267E-013
 0.934458E-013
 0.933642E-013
 0.932820E-013
 0.931993E-013
 0.931160E-013
 0.930322E-013
 0.929480E-013
 0.928634E-013
 0.927784E-013
 0.926931E-013
 0.926076E-013
 0.925217E-013
 0.924356E-013
 0.923493E-013
 0.922627E-013
 0.921760E-013
 0.920891E-013
 0.920021E-013
 0.919149E-013
 0.918275E-013
 0.917400E-013
 0.916524E-013
 0.915646E-013
 0.914766E-013
 0.913908E-013
 0.912816E-013
 0.913379E-013
 0.912817E-013
 0.910275E-013
 0.910495E-013
 0.910307E-013
 0.910162E-013
 0.910015E-013
 0.909868E-013
 0.909721E-013
 0.909574E-013
 0.909428E-013
 0.909282E-013
 0.909137E-013
 0.908992E-013
 0.908847E-013
 0.908703E-013
 0.908559E-013
 0.908416E-013
 0.908274E-013
 0.908132E-013
 0.907990E-013
 0.907850E-013
 0.907710E-013
 0.907571E-013
 0.907433E-013
 0.907295E-013
 0.907159E-013
 0.907024E-013
 0.906890E-013
 0.906758E-013
 0.906627E-013
 0.906497E-013
 0.906370E-013
 0.906244E-013
 0.906119E-013
 0.905997E-013
 0.905877E-013
 0.905759E-013
 0.905644E-013
 0.905531E-013
 0.905421E-013
 0.905314E-013
 0.905210E-013
 0.905109E-013
 0.905011E-013
 0.904917E-013
 0.904827E-013
 0.904740E-013
 0.904657E-013
 0.904578E-013
 0.904503E-013
 0.904433E-013
 0.904367E-013
 0.904305E-013
 0.904249E-013
 0.904197E-013
 0.904150E-013
 0.904107E-013
 0.904070E-013
 0.904039E-013
 0.904012E-013
 0.903991E-013
 0.903975E-013
 0.903964E-013
 0.903958E-013
 0.903958E-013
 0.903964E-013
 0.903975E-013
 0.903991E-013
 0.904012E-013
 0.904039E-013
 0.904071E-013
 0.904108E-013
 0.904150E-013
 0.904197E-013
 0.904249E-013
 0.904305E-013
 0.904367E-013
 0.904433E-013
 0.904503E-013
 0.904578E-013
 0.904657E-013
 0.904740E-013
 0.904827E-013
 0.904917E-013
 0.905012E-013
 0.905109E-013
 0.905210E-013
 0.905314E-013
 0.905422E-013
 0.905532E-013
 0.905644E-013
 0.905760E-013
 0.905877E-013
 0.905997E-013
 0.906120E-013
 0.906244E-013
 0.906370E-013
 0.906498E-013
 0.906627E-013
 0.906758E-013
 0.906891E-013
 0.907024E-013
 0.907159E-013
 0.907296E-013
 0.907433E-013
 0.907571E-013
 0.907710E-013
 0.907850E-013
 0.907991E-013
 0.908132E-013
 0.908274E-013
 0.908416E-013
 0.908560E-013
 0.908703E-013
 0.908847E-013
 0.908992E-013
 0.909137E-013
 0.909282E-013
 0.909428E-013
 0.909574E-013
 0.909721E-013
 0.909868E-013
 0.910015E-013
 0.910162E-013
 0.910307E-013
 0.910495E-013
 0.910275E-013
 0.912816E-013
 0.913908E-013
 0.910495E-013
 0.911045E-013
 0.911004E-013
 0.911026E-013
 0.911042E-013
 0.911059E-013
 0.911075E-013
 0.911092E-013
 0.911108E-013
 0.911125E-013
 0.911141E-013
 0.911158E-013
 0.911174E-013
 0.911190E-013
 0.911207E-013
 0.911223E-013
 0.911239E-013
 0.911255E-013
 0.911271E-013
 0.911287E-013
 0.911303E-013
 0.911319E-013
 0.911334E-013
 0.911350E-013
 0.911365E-013
 0.911381E-013
 0.911396E-013
 0.911411E-013
 0.911426E-013
 0.911441E-013
 0.911456E-013
 0.911470E-013
 0.911484E-013
 0.911498E-013
 0.911512E-013
 0.911526E-013
 0.911539E-013
 0.911552E-013
 0.911565E-013
 0.911578E-013
 0.911590E-013
 0.911602E-013
 0.911613E-013
 0.911624E-013
 0.911635E-013
 0.911645E-013
 0.911655E-013
 0.911664E-013
 0.911673E-013
 0.911682E-013
 0.911689E-013
 0.911697E-013
 0.911704E-013
 0.911710E-013
 0.911716E-013
 0.911721E-013
 0.911725E-013
 0.911729E-013
 0.911732E-013
 0.911735E-013
 0.911737E-013
 0.911738E-013
 0.911739E-013
 0.911739E-013
 0.911738E-013
 0.911737E-013
 0.911735E-013
 0.911732E-013
 0.911729E-013
 0.911725E-013
 0.911721E-013
 0.911716E-013
 0.911710E-013
 0.911704E-013
 0.911697E-013
 0.911689E-013
 0.911682E-013
 0.911673E-013
 0.911664E-013
 0.911655E-013
 0.911645E-013
 0.911635E-013
 0.911624E-013
 0.911613E-013
 0.911602E-013
 0.911590E-013
 0.911578E-013
 0.911565E-013
 0.911552E-013
 0.911539E-013
 0.911526E-013
 0.911512E-013
 0.911498E-013
 0.911484E-013
 0.911470E-013
 0.911456E-013
 0.911441E-013
 0.911426E-013
 0.911411E-013
 0.911396E-013
 0.911381E-013
 0.911365E-013
 0.911350E-013
 0.911334E-013
 0.911319E-013
 0.911303E-013
 0.911287E-013
 0.911271E-013
 0.911255E-013
 0.911239E-013
 0.911223E-013
 0.911207E-013
 0.911190E-013
 0.911174E-013
 0.911158E-013
 0.911141E-013
 0.911125E-013
 0.911108E-013
 0.911092E-013
 0.911075E-013
 0.911059E-013
 0.911042E-013
 0.911026E-013
 0.911004E-013
 0.911045E-013
 0.910495E-013
 0.913908E-013
 0.914766E-013
 0.910307E-013
 0.911004E-013
 0.910926E-013
 0.910931E-013
 0.910930E-013
 0.910928E-013
 0.910927E-013
 0.910925E-013
 0.910924E-013
 0.910923E-013
 0.910921E-013
 0.910920E-013
 0.910919E-013
 0.910917E-013
 0.910916E-013
 0.910915E-013
 0.910913E-013
 0.910912E-013
 0.910911E-013
 0.910910E-013
 0.910908E-013
 0.910907E-013
 0.910906E-013
 0.910905E-013
 0.910904E-013
 0.910903E-013
 0.910902E-013
 0.910901E-013
 0.910900E-013
 0.910899E-013
 0.910898E-013
 0.910897E-013
 0.910896E-013
 0.910895E-013
 0.910895E-013
 0.910894E-013
 0.910893E-013
 0.910893E-013
 0.910892E-013
 0.910892E-013
 0.910891E-013
 0.910891E-013
 0.910891E-013
 0.910890E-013
 0.910890E-013
 0.910890E-013
 0.910890E-013
 0.910890E-013
 0.910889E-013
 0.910889E-013
 0.910889E-013
 0.910889E-013
 0.910889E-013
 0.910889E-013
 0.910889E-013
 0.910889E-013
 0.910889E-013
 0.910889E-013
 0.910889E-013
 0.910889E-013
 0.910889E-013
 0.910889E-013
 0.910889E-013
 0.910889E-013
 0.910889E-013
 0.910889E-013
 0.910889E-013
 0.910889E-013
 0.910889E-013
 0.910889E-013
 0.910889E-013
 0.910889E-013
 0.910889E-013
 0.910889E-013
 0.910889E-013
 0.910889E-013
 0.910889E-013
 0.910890E-013
 0.910890E-013
 0.910890E-013
 0.910890E-013
 0.910890E-013
 0.910890E-013
 0.910891E-013
 0.910891E-013
 0.910891E-013
 0.910892E-013
 0.910892E-013
 0.910893E-013
 0.910893E-013
 0.910894E-013
 0.910895E-013
 0.910895E-013
 0.910896E-013
 0.910897E-013
 0.910898E-013
 0.910899E-013
 0.910900E-013
 0.910901E-013
 0.910902E-013
 0.910903E-013
 0.910904E-013
 0.910905E-013
 0.910906E-013
 0.910907E-013
 0.910908E-013
 0.910910E-013
 0.910911E-013
 0.910912E-013
 0.910913E-013
 0.910915E-013
 0.910916E-013
 0.910917E-013
 0.910919E-013
 0.910920E-013
 0.910921E-013
 0.910923E-013
 0.910924E-013
 0.910925E-013
 0.910927E-013
 0.910928E-013
 0.910930E-013
 0.910931E-013
 0.910927E-013
 0.911004E-013
 0.910307E-013
 0.914766E-013
 0.915647E-013
 0.910162E-013
 0.911026E-013
 0.910931E-013
 0.910939E-013
 0.910939E-013
 0.910939E-013
 0.910939E-013
 0.910939E-013
 0.910939E-013
 0.910940E-013
 0.910940E-013
 0.910940E-013
 0.910940E-013
 0.910940E-013
 0.910940E-013
 0.910940E-013
 0.910941E-013
 0.910941E-013
 0.910941E-013
 0.910941E-013
 0.910941E-013
 0.910942E-013
 0.910942E-013
 0.910942E-013
 0.910943E-013
 0.910943E-013
 0.910943E-013
 0.910944E-013
 0.910944E-013
 0.910945E-013
 0.910945E-013
 0.910946E-013
 0.910946E-013
 0.910947E-013
 0.910947E-013
 0.910948E-013
 0.910949E-013
 0.910949E-013
 0.910950E-013
 0.910951E-013
 0.910952E-013
 0.910952E-013
 0.910953E-013
 0.910954E-013
 0.910955E-013
 0.910955E-013
 0.910956E-013
 0.910957E-013
 0.910958E-013
 0.910959E-013
 0.910959E-013
 0.910960E-013
 0.910961E-013
 0.910961E-013
 0.910962E-013
 0.910962E-013
 0.910963E-013
 0.910963E-013
 0.910963E-013
 0.910964E-013
 0.910964E-013
 0.910964E-013
 0.910964E-013
 0.910964E-013
 0.910964E-013
 0.910964E-013
 0.910964E-013
 0.910963E-013
 0.910963E-013
 0.910963E-013
 0.910962E-013
 0.910962E-013
 0.910961E-013
 0.910961E-013
 0.910960E-013
 0.910959E-013
 0.910959E-013
 0.910958E-013
 0.910957E-013
 0.910956E-013
 0.910955E-013
 0.910955E-013
 0.910954E-013
 0.910953E-013
 0.910952E-013
 0.910952E-013
 0.910951E-013
 0.910950E-013
 0.910949E-013
 0.910949E-013
 0.910948E-013
 0.910947E-013
 0.910947E-013
 0.910946E-013
 0.910946E-013
 0.910945E-013
 0.910945E-013
 0.910944E-013
 0.910944E-013
 0.910943E-013
 0.910943E-013
 0.910943E-013
 0.910942E-013
 0.910942E-013
 0.910942E-013
 0.910941E-013
 0.910941E-013
 0.910941E-013
 0.910941E-013
 0.910941E-013
 0.910940E-013
 0.910940E-013
 0.910940E-013
 0.910940E-013
 0.910940E-013
 0.910940E-013
 0.910940E-013
 0.910939E-013
 0.910939E-013
 0.910939E-013
 0.910939E-013
 0.910939E-013
 0.910939E-013
 0.910931E-013
 0.911026E-013
 0.910162E-013
 0.915646E-013
 0.916525E-013
 0.910015E-013
 0.911042E-013
 0.910930E-013
 0.910939E-013
 0.910938E-013
 0.910938E-013
 0.910938E-013
 0.910938E-013
 0.910938E-013
 0.910938E-013
 0.910938E-013
 0.910938E-013
 0.910939E-013
 0.910939E-013
 0.910939E-013
 0.910939E-013
 0.910939E-013
 0.910939E-013
 0.910939E-013
 0.910939E-013
 0.910939E-013
 0.910940E-013
 0.910940E-013
 0.910940E-013
 0.910940E-013
 0.910941E-013
 0.910941E-013
 0.910941E-013
 0.910942E-013
 0.910942E-013
 0.910943E-013
 0.910943E-013
 0.910944E-013
 0.910944E-013
 0.910945E-013
 0.910946E-013
 0.910946E-013
 0.910947E-013
 0.910948E-013
 0.910949E-013
 0.910949E-013
 0.910950E-013
 0.910951E-013
 0.910952E-013
 0.910953E-013
 0.910954E-013
 0.910955E-013
 0.910956E-013
 0.910956E-013
 0.910957E-013
 0.910958E-013
 0.910959E-013
 0.910959E-013
 0.910960E-013
 0.910961E-013
 0.910961E-013
 0.910962E-013
 0.910962E-013
 0.910963E-013
 0.910963E-013
 0.910963E-013
 0.910963E-013
 0.910964E-013
 0.910964E-013
 0.910963E-013
 0.910963E-013
 0.910963E-013
 0.910963E-013
 0.910962E-013
 0.910962E-013
 0.910961E-013
 0.910961E-013
 0.910960E-013
 0.910959E-013
 0.910959E-013
 0.910958E-013
 0.910957E-013
 0.910956E-013
 0.910956E-013
 0.910955E-013
 0.910954E-013
 0.910953E-013
 0.910952E-013
 0.910951E-013
 0.910950E-013
 0.910950E-013
 0.910949E-013
 0.910948E-013
 0.910947E-013
 0.910946E-013
 0.910946E-013
 0.910945E-013
 0.910944E-013
 0.910944E-013
 0.910943E-013
 0.910943E-013
 0.910942E-013
 0.910942E-013
 0.910941E-013
 0.910941E-013
 0.910941E-013
 0.910940E-013
 0.910940E-013
 0.910940E-013
 0.910940E-013
 0.910939E-013
 0.910939E-013
 0.910939E-013
 0.910939E-013
 0.910939E-013
 0.910939E-013
 0.910939E-013
 0.910939E-013
 0.910939E-013
 0.910939E-013
 0.910938E-013
 0.910938E-013
 0.910938E-013
 0.910938E-013
 0.910938E-013
 0.910938E-013
 0.910938E-013
 0.910939E-013
 0.910930E-013
 0.911042E-013
 0.910015E-013
 0.916524E-013
 0.917401E-013
 0.909868E-013
 0.911059E-013
 0.910928E-013
 0.910939E-013
 0.910938E-013
 0.910938E-013
 0.910938E-013
 0.910938E-013
 0.910938E-013
 0.910938E-013
 0.910939E-013
 0.910939E-013
 0.910939E-013
 0.910939E-013
 0.910939E-013
 0.910939E-013
 0.910939E-013
 0.910939E-013
 0.910939E-013
 0.910940E-013
 0.910940E-013
 0.910940E-013
 0.910940E-013
 0.910941E-013
 0.910941E-013
 0.910941E-013
 0.910942E-013
 0.910942E-013
 0.910943E-013
 0.910943E-013
 0.910944E-013
 0.910945E-013
 0.910945E-013
 0.910946E-013
 0.910947E-013
 0.910947E-013
 0.910948E-013
 0.910949E-013
 0.910950E-013
 0.910951E-013
 0.910952E-013
 0.910953E-013
 0.910954E-013
 0.910955E-013
 0.910956E-013
 0.910957E-013
 0.910958E-013
 0.910959E-013
 0.910960E-013
 0.910961E-013
 0.910962E-013
 0.910963E-013
 0.910964E-013
 0.910965E-013
 0.910966E-013
 0.910966E-013
 0.910967E-013
 0.910967E-013
 0.910968E-013
 0.910968E-013
 0.910969E-013
 0.910969E-013
 0.910969E-013
 0.910969E-013
 0.910969E-013
 0.910969E-013
 0.910968E-013
 0.910968E-013
 0.910967E-013
 0.910967E-013
 0.910966E-013
 0.910966E-013
 0.910965E-013
 0.910964E-013
 0.910963E-013
 0.910962E-013
 0.910961E-013
 0.910960E-013
 0.910959E-013
 0.910958E-013
 0.910957E-013
 0.910956E-013
 0.910955E-013
 0.910954E-013
 0.910953E-013
 0.910952E-013
 0.910951E-013
 0.910950E-013
 0.910949E-013
 0.910948E-013
 0.910948E-013
 0.910947E-013
 0.910946E-013
 0.910945E-013
 0.910945E-013
 0.910944E-013
 0.910943E-013
 0.910943E-013
 0.910942E-013
 0.910942E-013
 0.910941E-013
 0.910941E-013
 0.910941E-013
 0.910940E-013
 0.910940E-013
 0.910940E-013
 0.910940E-013
 0.910939E-013
 0.910939E-013
 0.910939E-013
 0.910939E-013
 0.910939E-013
 0.910939E-013
 0.910939E-013
 0.910939E-013
 0.910939E-013
 0.910939E-013
 0.910939E-013
 0.910938E-013
 0.910938E-013
 0.910938E-013
 0.910938E-013
 0.910939E-013
 0.910928E-013
 0.911059E-013
 0.909868E-013
 0.917400E-013
 0.918276E-013
 0.909721E-013
 0.911075E-013
 0.910927E-013
 0.910939E-013
 0.910938E-013
 0.910938E-013
 0.910938E-013
 0.910938E-013
 0.910938E-013
 0.910939E-013
 0.910939E-013
 0.910939E-013
 0.910939E-013
 0.910939E-013
 0.910939E-013
 0.910939E-013
 0.910939E-013
 0.910939E-013
 0.910940E-013
 0.910940E-013
 0.910940E-013
 0.910940E-013
 0.910941E-013
 0.910941E-013
 0.910942E-013
 0.910942E-013
 0.910943E-013
 0.910943E-013
 0.910944E-013
 0.910944E-013
 0.910945E-013
 0.910946E-013
 0.910947E-013
 0.910947E-013
 0.910948E-013
 0.910949E-013
 0.910950E-013
 0.910951E-013
 0.910952E-013
 0.910953E-013
 0.910955E-013
 0.910956E-013
 0.910957E-013
 0.910958E-013
 0.910959E-013
 0.910961E-013
 0.910962E-013
 0.910963E-013
 0.910964E-013
 0.910966E-013
 0.910967E-013
 0.910968E-013
 0.910969E-013
 0.910970E-013
 0.910971E-013
 0.910972E-013
 0.910972E-013
 0.910973E-013
 0.910974E-013
 0.910974E-013
 0.910974E-013
 0.910975E-013
 0.910975E-013
 0.910975E-013
 0.910975E-013
 0.910974E-013
 0.910974E-013
 0.910974E-013
 0.910973E-013
 0.910972E-013
 0.910972E-013
 0.910971E-013
 0.910970E-013
 0.910969E-013
 0.910968E-013
 0.910967E-013
 0.910966E-013
 0.910964E-013
 0.910963E-013
 0.910962E-013
 0.910961E-013
 0.910960E-013
 0.910958E-013
 0.910957E-013
 0.910956E-013
 0.910955E-013
 0.910954E-013
 0.910952E-013
 0.910951E-013
 0.910950E-013
 0.910949E-013
 0.910948E-013
 0.910947E-013
 0.910947E-013
 0.910946E-013
 0.910945E-013
 0.910944E-013
 0.910944E-013
 0.910943E-013
 0.910943E-013
 0.910942E-013
 0.910942E-013
 0.910941E-013
 0.910941E-013
 0.910941E-013
 0.910940E-013
 0.910940E-013
 0.910940E-013
 0.910940E-013
 0.910939E-013
 0.910939E-013
 0.910939E-013
 0.910939E-013
 0.910939E-013
 0.910939E-013
 0.910939E-013
 0.910939E-013
 0.910939E-013
 0.910939E-013
 0.910938E-013
 0.910938E-013
 0.910938E-013
 0.910939E-013
 0.910927E-013
 0.911075E-013
 0.909721E-013
 0.918275E-013
 0.919150E-013
 0.909574E-013
 0.911092E-013
 0.910925E-013
 0.910939E-013
 0.910938E-013
 0.910938E-013
 0.910938E-013
 0.910938E-013
 0.910939E-013
 0.910939E-013
 0.910939E-013
 0.910939E-013
 0.910939E-013
 0.910939E-013
 0.910939E-013
 0.910939E-013
 0.910939E-013
 0.910940E-013
 0.910940E-013
 0.910940E-013
 0.910941E-013
 0.910941E-013
 0.910941E-013
 0.910942E-013
 0.910942E-013
 0.910943E-013
 0.910943E-013
 0.910944E-013
 0.910945E-013
 0.910945E-013
 0.910946E-013
 0.910947E-013
 0.910948E-013
 0.910949E-013
 0.910950E-013
 0.910951E-013
 0.910953E-013
 0.910954E-013
 0.910955E-013
 0.910956E-013
 0.910958E-013
 0.910959E-013
 0.910961E-013
 0.910962E-013
 0.910963E-013
 0.910965E-013
 0.910966E-013
 0.910968E-013
 0.910969E-013
 0.910971E-013
 0.910972E-013
 0.910973E-013
 0.910975E-013
 0.910976E-013
 0.910977E-013
 0.910978E-013
 0.910979E-013
 0.910979E-013
 0.910980E-013
 0.910981E-013
 0.910981E-013
 0.910981E-013
 0.910981E-013
 0.910981E-013
 0.910981E-013
 0.910981E-013
 0.910981E-013
 0.910980E-013
 0.910980E-013
 0.910979E-013
 0.910978E-013
 0.910977E-013
 0.910976E-013
 0.910975E-013
 0.910973E-013
 0.910972E-013
 0.910971E-013
 0.910969E-013
 0.910968E-013
 0.910966E-013
 0.910965E-013
 0.910964E-013
 0.910962E-013
 0.910961E-013
 0.910959E-013
 0.910958E-013
 0.910956E-013
 0.910955E-013
 0.910954E-013
 0.910953E-013
 0.910951E-013
 0.910950E-013
 0.910949E-013
 0.910948E-013
 0.910947E-013
 0.910946E-013
 0.910946E-013
 0.910945E-013
 0.910944E-013
 0.910943E-013
 0.910943E-013
 0.910942E-013
 0.910942E-013
 0.910941E-013
 0.910941E-013
 0.910941E-013
 0.910940E-013
 0.910940E-013
 0.910940E-013
 0.910940E-013
 0.910939E-013
 0.910939E-013
 0.910939E-013
 0.910939E-013
 0.910939E-013
 0.910939E-013
 0.910939E-013
 0.910939E-013
 0.910939E-013
 0.910939E-013
 0.910939E-013
 0.910938E-013
 0.910939E-013
 0.910925E-013
 0.911092E-013
 0.909574E-013
 0.919148E-013
 0.920022E-013
 0.909428E-013
 0.911108E-013
 0.910924E-013
 0.910939E-013
 0.910938E-013
 0.910938E-013
 0.910938E-013
 0.910939E-013
 0.910939E-013
 0.910939E-013
 0.910939E-013
 0.910939E-013
 0.910939E-013
 0.910939E-013
 0.910939E-013
 0.910940E-013
 0.910940E-013
 0.910940E-013
 0.910940E-013
 0.910941E-013
 0.910941E-013
 0.910941E-013
 0.910942E-013
 0.910942E-013
 0.910943E-013
 0.910944E-013
 0.910944E-013
 0.910945E-013
 0.910946E-013
 0.910947E-013
 0.910948E-013
 0.910949E-013
 0.910950E-013
 0.910951E-013
 0.910952E-013
 0.910954E-013
 0.910955E-013
 0.910957E-013
 0.910958E-013
 0.910960E-013
 0.910961E-013
 0.910963E-013
 0.910965E-013
 0.910966E-013
 0.910968E-013
 0.910970E-013
 0.910972E-013
 0.910973E-013
 0.910975E-013
 0.910977E-013
 0.910978E-013
 0.910980E-013
 0.910981E-013
 0.910983E-013
 0.910984E-013
 0.910985E-013
 0.910986E-013
 0.910987E-013
 0.910988E-013
 0.910988E-013
 0.910989E-013
 0.910989E-013
 0.910989E-013
 0.910989E-013
 0.910989E-013
 0.910989E-013
 0.910989E-013
 0.910988E-013
 0.910987E-013
 0.910986E-013
 0.910985E-013
 0.910984E-013
 0.910983E-013
 0.910981E-013
 0.910980E-013
 0.910978E-013
 0.910977E-013
 0.910975E-013
 0.910973E-013
 0.910972E-013
 0.910970E-013
 0.910968E-013
 0.910966E-013
 0.910965E-013
 0.910963E-013
 0.910961E-013
 0.910960E-013
 0.910958E-013
 0.910957E-013
 0.910955E-013
 0.910954E-013
 0.910953E-013
 0.910951E-013
 0.910950E-013
 0.910949E-013
 0.910948E-013
 0.910947E-013
 0.910946E-013
 0.910945E-013
 0.910944E-013
 0.910944E-013
 0.910943E-013
 0.910943E-013
 0.910942E-013
 0.910942E-013
 0.910941E-013
 0.910941E-013
 0.910940E-013
 0.910940E-013
 0.910940E-013
 0.910940E-013
 0.910939E-013
 0.910939E-013
 0.910939E-013
 0.910939E-013
 0.910939E-013
 0.910939E-013
 0.910939E-013
 0.910939E-013
 0.910939E-013
 0.910939E-013
 0.910938E-013
 0.910939E-013
 0.910924E-013
 0.911108E-013
 0.909428E-013
 0.920020E-013
 0.920893E-013
 0.909282E-013
 0.911125E-013
 0.910923E-013
 0.910940E-013
 0.910938E-013
 0.910938E-013
 0.910939E-013
 0.910939E-013
 0.910939E-013
 0.910939E-013
 0.910939E-013
 0.910939E-013
 0.910939E-013
 0.910939E-013
 0.910940E-013
 0.910940E-013
 0.910940E-013
 0.910940E-013
 0.910941E-013
 0.910941E-013
 0.910942E-013
 0.910942E-013
 0.910943E-013
 0.910943E-013
 0.910944E-013
 0.910945E-013
 0.910945E-013
 0.910946E-013
 0.910947E-013
 0.910948E-013
 0.910950E-013
 0.910951E-013
 0.910952E-013
 0.910954E-013
 0.910955E-013
 0.910957E-013
 0.910958E-013
 0.910960E-013
 0.910962E-013
 0.910964E-013
 0.910966E-013
 0.910968E-013
 0.910970E-013
 0.910972E-013
 0.910974E-013
 0.910976E-013
 0.910978E-013
 0.910980E-013