# vtk DataFile Version 3.0
Solution data
ASCII
DATASET STRUCTURED_GRID
DIMENSIONS 128 128 1
POINTS 16384  double
      0.000004      0.000004      0.000000
      0.000012      0.000004      0.000000
      0.000020      0.000004      0.000000
      0.000027      0.000004      0.000000
      0.000035      0.000004      0.000000
      0.000043      0.000004      0.000000
      0.000051      0.000004      0.000000
      0.000059      0.000004      0.000000
      0.000066      0.000004      0.000000
      0.000074      0.000004      0.000000
      0.000082      0.000004      0.000000
      0.000090      0.000004      0.000000
      0.000098      0.000004      0.000000
      0.000105      0.000004      0.000000
      0.000113      0.000004      0.000000
      0.000121      0.000004      0.000000
      0.000129      0.000004      0.000000
      0.000137      0.000004      0.000000
      0.000145      0.000004      0.000000
      0.000152      0.000004      0.000000
      0.000160      0.000004      0.000000
      0.000168      0.000004      0.000000
      0.000176      0.000004      0.000000
      0.000184      0.000004      0.000000
      0.000191      0.000004      0.000000
      0.000199      0.000004      0.000000
      0.000207      0.000004      0.000000
      0.000215      0.000004      0.000000
      0.000223      0.000004      0.000000
      0.000230      0.000004      0.000000
      0.000238      0.000004      0.000000
      0.000246      0.000004      0.000000
      0.000254      0.000004      0.000000
      0.000262      0.000004      0.000000
      0.000270      0.000004      0.000000
      0.000277      0.000004      0.000000
      0.000285      0.000004      0.000000
      0.000293      0.000004      0.000000
      0.000301      0.000004      0.000000
      0.000309      0.000004      0.000000
      0.000316      0.000004      0.000000
      0.000324      0.000004      0.000000
      0.000332      0.000004      0.000000
      0.000340      0.000004      0.000000
      0.000348      0.000004      0.000000
      0.000355      0.000004      0.000000
      0.000363      0.000004      0.000000
      0.000371      0.000004      0.000000
      0.000379      0.000004      0.000000
      0.000387      0.000004      0.000000
      0.000395      0.000004      0.000000
      0.000402      0.000004      0.000000
      0.000410      0.000004      0.000000
      0.000418      0.000004      0.000000
      0.000426      0.000004      0.000000
      0.000434      0.000004      0.000000
      0.000441      0.000004      0.000000
      0.000449      0.000004      0.000000
      0.000457      0.000004      0.000000
      0.000465      0.000004      0.000000
      0.000473      0.000004      0.000000
      0.000480      0.000004      0.000000
      0.000488      0.000004      0.000000
      0.000496      0.000004      0.000000
      0.000504      0.000004      0.000000
      0.000512      0.000004      0.000000
      0.000520      0.000004      0.000000
      0.000527      0.000004      0.000000
      0.000535      0.000004      0.000000
      0.000543      0.000004      0.000000
      0.000551      0.000004      0.000000
      0.000559      0.000004      0.000000
      0.000566      0.000004      0.000000
      0.000574      0.000004      0.000000
      0.000582      0.000004      0.000000
      0.000590      0.000004      0.000000
      0.000598      0.000004      0.000000
      0.000605      0.000004      0.000000
      0.000613      0.000004      0.000000
      0.000621      0.000004      0.000000
      0.000629      0.000004      0.000000
      0.000637      0.000004      0.000000
      0.000645      0.000004      0.000000
      0.000652      0.000004      0.000000
      0.000660      0.000004      0.000000
      0.000668      0.000004      0.000000
      0.000676      0.000004      0.000000
      0.000684      0.000004      0.000000
      0.000691      0.000004      0.000000
      0.000699      0.000004      0.000000
      0.000707      0.000004      0.000000
      0.000715      0.000004      0.000000
      0.000723      0.000004      0.000000
      0.000730      0.000004      0.000000
      0.000738      0.000004      0.000000
      0.000746      0.000004      0.000000
      0.000754      0.000004      0.000000
      0.000762      0.000004      0.000000
      0.000770      0.000004      0.000000
      0.000777      0.000004      0.000000
      0.000785      0.000004      0.000000
      0.000793      0.000004      0.000000
      0.000801      0.000004      0.000000
      0.000809      0.000004      0.000000
      0.000816      0.000004      0.000000
      0.000824      0.000004      0.000000
      0.000832      0.000004      0.000000
      0.000840      0.000004      0.000000
      0.000848      0.000004      0.000000
      0.000855      0.000004      0.000000
      0.000863      0.000004      0.000000
      0.000871      0.000004      0.000000
      0.000879      0.000004      0.000000
      0.000887      0.000004      0.000000
      0.000895      0.000004      0.000000
      0.000902      0.000004      0.000000
      0.000910      0.000004      0.000000
      0.000918      0.000004      0.000000
      0.000926      0.000004      0.000000
      0.000934      0.000004      0.000000
      0.000941      0.000004      0.000000
      0.000949      0.000004      0.000000
      0.000957      0.000004      0.000000
      0.000965      0.000004      0.000000
      0.000973      0.000004      0.000000
      0.000980      0.000004      0.000000
      0.000988      0.000004      0.000000
      0.000996      0.000004      0.000000
      0.000004      0.000012      0.000000
      0.000012      0.000012      0.000000
      0.000020      0.000012      0.000000
      0.000027      0.000012      0.000000
      0.000035      0.000012      0.000000
      0.000043      0.000012      0.000000
      0.000051      0.000012      0.000000
      0.000059      0.000012      0.000000
      0.000066      0.000012      0.000000
      0.000074      0.000012      0.000000
      0.000082      0.000012      0.000000
      0.000090      0.000012      0.000000
      0.000098      0.000012      0.000000
      0.000105      0.000012      0.000000
      0.000113      0.000012      0.000000
      0.000121      0.000012      0.000000
      0.000129      0.000012      0.000000
      0.000137      0.000012      0.000000
      0.000145      0.000012      0.000000
      0.000152      0.000012      0.000000
      0.000160      0.000012      0.000000
      0.000168      0.000012      0.000000
      0.000176      0.000012      0.000000
      0.000184      0.000012      0.000000
      0.000191      0.000012      0.000000
      0.000199      0.000012      0.000000
      0.000207      0.000012      0.000000
      0.000215      0.000012      0.000000
      0.000223      0.000012      0.000000
      0.000230      0.000012      0.000000
      0.000238      0.000012      0.000000
      0.000246      0.000012      0.000000
      0.000254      0.000012      0.000000
      0.000262      0.000012      0.000000
      0.000270      0.000012      0.000000
      0.000277      0.000012      0.000000
      0.000285      0.000012      0.000000
      0.000293      0.000012      0.000000
      0.000301      0.000012      0.000000
      0.000309      0.000012      0.000000
      0.000316      0.000012      0.000000
      0.000324      0.000012      0.000000
      0.000332      0.000012      0.000000
      0.000340      0.000012      0.000000
      0.000348      0.000012      0.000000
      0.000355      0.000012      0.000000
      0.000363      0.000012      0.000000
      0.000371      0.000012      0.000000
      0.000379      0.000012      0.000000
      0.000387      0.000012      0.000000
      0.000395      0.000012      0.000000
      0.000402      0.000012      0.000000
      0.000410      0.000012      0.000000
      0.000418      0.000012      0.000000
      0.000426      0.000012      0.000000
      0.000434      0.000012      0.000000
      0.000441      0.000012      0.000000
      0.000449      0.000012      0.000000
      0.000457      0.000012      0.000000
      0.000465      0.000012      0.000000
      0.000473      0.000012      0.000000
      0.000480      0.000012      0.000000
      0.000488      0.000012      0.000000
      0.000496      0.000012      0.000000
      0.000504      0.000012      0.000000
      0.000512      0.000012      0.000000
      0.000520      0.000012      0.000000
      0.000527      0.000012      0.000000
      0.000535      0.000012      0.000000
      0.000543      0.000012      0.000000
      0.000551      0.000012      0.000000
      0.000559      0.000012      0.000000
      0.000566      0.000012      0.000000
      0.000574      0.000012      0.000000
      0.000582      0.000012      0.000000
      0.000590      0.000012      0.000000
      0.000598      0.000012      0.000000
      0.000605      0.000012      0.000000
      0.000613      0.000012      0.000000
      0.000621      0.000012      0.000000
      0.000629      0.000012      0.000000
      0.000637      0.000012      0.000000
      0.000645      0.000012      0.000000
      0.000652      0.000012      0.000000
      0.000660      0.000012      0.000000
      0.000668      0.000012      0.000000
      0.000676      0.000012      0.000000
      0.000684      0.000012      0.000000
      0.000691      0.000012      0.000000
      0.000699      0.000012      0.000000
      0.000707      0.000012      0.000000
      0.000715      0.000012      0.000000
      0.000723      0.000012      0.000000
      0.000730      0.000012      0.000000
      0.000738      0.000012      0.000000
      0.000746      0.000012      0.000000
      0.000754      0.000012      0.000000
      0.000762      0.000012      0.000000
      0.000770      0.000012      0.000000
      0.000777      0.000012      0.000000
      0.000785      0.000012      0.000000
[...]
POINT_DATA 16384
SCALARS rhoe double
LOOKUP_TABLE default
 0.914843E-013
 0.913170E-013
 0.914917E-013
 0.915809E-013
 0.916865E-013
 0.917892E-013
 0.918921E-013
 0.919947E-013
 0.920970E-013
 0.921991E-013
 0.923010E-013
 0.924025E-013
 0.925038E-013
 0.926048E-013
 0.927054E-013
 0.928057E-013
 0.929057E-013
 0.930052E-013
 0.931043E-013
 0.932029E-013
 0.933010E-013
 0.933986E-013
 0.934956E-013
 0.935920E-013
 0.936876E-013
 0.937825E-013
 0.938767E-013
 0.939699E-013
 0.940622E-013
 0.941535E-013
 0.942437E-013
 0.943328E-013
 0.944206E-013
 0.945071E-013
 0.945922E-013
 0.946758E-013
 0.947578E-013
 0.948381E-013
 0.949166E-013
 0.949932E-013
 0.950678E-013
 0.951403E-013
 0.952107E-013
 0.952787E-013
 0.953443E-013
 0.954074E-013
 0.954679E-013
 0.955256E-013
 0.955806E-013
 0.956326E-013
 0.956817E-013
 0.957276E-013
 0.957704E-013
 0.958099E-013
 0.958461E-013
 0.958788E-013
 0.959081E-013
 0.959339E-013
 0.959561E-013
 0.959746E-013
 0.959895E-013
 0.960007E-013
 0.960082E-013
 0.960119E-013
 0.960119E-013
 0.960082E-013
 0.960007E-013
 0.959895E-013
 0.959746E-013
 0.959561E-013
 0.959339E-013
 0.959081E-013
 0.958788E-013
 0.958460E-013
 0.958098E-013
 0.957703E-013
 0.957275E-013
 0.956816E-013
 0.956326E-013
 0.955805E-013
 0.955256E-013
 0.954678E-013
 0.954073E-013
 0.953442E-013
 0.952786E-013
 0.952106E-013
 0.951403E-013
 0.950677E-013
 0.949931E-013
 0.949165E-013
 0.948380E-013
 0.947577E-013
 0.946757E-013
 0.945921E-013
 0.945070E-013
 0.944205E-013
 0.943327E-013
 0.942436E-013
 0.941534E-013
 0.940621E-013
 0.939698E-013
 0.938765E-013
 0.937824E-013
 0.936875E-013
 0.935919E-013
 0.934955E-013
 0.933985E-013
 0.933009E-013
 0.932028E-013
 0.931042E-013
 0.930051E-013
 0.929056E-013
 0.928056E-013
 0.927053E-013
 0.926047E-013
 0.925037E-013
 0.924025E-013
 0.923009E-013
 0.921991E-013
 0.920970E-013
 0.919946E-013
 0.918920E-013
 0.917892E-013
 0.916864E-013
 0.915808E-013
 0.914916E-013
 0.913170E-013
 0.914842E-013
 0.913170E-013
 0.909195E-013
 0.909905E-013
 0.909326E-013
 0.909014E-013
 0.908660E-013
 0.908313E-013
 0.907966E-013
 0.907619E-013
 0.907274E-013
 0.906930E-013
 0.906587E-013
 0.906245E-013
 0.905905E-013
 0.905565E-013
 0.905227E-013
 0.904891E-013
 0.904555E-013
 0.904222E-013
 0.903890E-013
 0.903560E-013
 0.903231E-013
 0.902905E-013
 0.902582E-013
 0.902260E-013
 0.901941E-013
 0.901626E-013
 0.901313E-013
 0.901003E-013
 0.900697E-013
 0.900394E-013
 0.900096E-013
 0.899802E-013
 0.899512E-013
 0.899228E-013
 0.898948E-013
 0.898674E-013
 0.898405E-013
 0.898143E-013
 0.897887E-013
 0.897638E-013
 0.897395E-013
 0.897161E-013
 0.896934E-013
 0.896715E-013
 0.896504E-013
 0.896303E-013
 0.896110E-013
 0.895927E-013
 0.895753E-013
 0.895590E-013
 0.895437E-013
 0.895295E-013
 0.895163E-013
 0.895043E-013
 0.894934E-013
 0.894836E-013
 0.894750E-013
 0.894677E-013
 0.894615E-013
 0.894565E-013
 0.894528E-013
 0.894503E-013
 0.894491E-013
 0.894491E-013
 0.894503E-013
 0.894528E-013
 0.894565E-013
 0.894615E-013
 0.894677E-013
 0.894751E-013
 0.894836E-013
 0.894934E-013
 0.895043E-013
 0.895163E-013
 0.895295E-013
 0.895437E-013
 0.895590E-013
 0.895754E-013
 0.895927E-013
 0.896110E-013
 0.896303E-013
 0.896505E-013
 0.896715E-013
 0.896934E-013
 0.897161E-013
 0.897396E-013
 0.897638E-013
 0.897887E-013
 0.898143E-013
 0.898406E-013
 0.898674E-013
 0.898948E-013
 0.899228E-013
 0.899513E-013
 0.899802E-013
 0.900097E-013
 0.900395E-013
 0.900697E-013
 0.901004E-013
 0.901313E-013
 0.901626E-013
 0.901942E-013
 0.902261E-013
 0.902582E-013
 0.902906E-013
 0.903232E-013
 0.903560E-013
 0.903890E-013
 0.904222E-013
 0.904556E-013
 0.904891E-013
 0.905228E-013
 0.905566E-013
 0.905905E-013
 0.906246E-013
 0.906588E-013
 0.906931E-013
 0.907275E-013
 0.907620E-013
 0.907966E-013
 0.908313E-013
 0.908660E-013
 0.909014E-013
 0.909326E-013
 0.909905E-013
 0.909195E-013
 0.913170E-013
 0.914917E-013
 0.909905E-013
 0.911495E-013
 0.911250E-013
 0.911388E-013
 0.911462E-013
 0.911544E-013
 0.911625E-013
 0.911706E-013
 0.911787E-013
 0.911868E-013
 0.911948E-013
 0.912028E-013
 0.912108E-013
 0.912187E-013
 0.912266E-013
 0.912345E-013
 0.912423E-013
 0.912501E-013
 0.912579E-013
 0.912656E-013
 0.912733E-013
 0.912809E-013
 0.912884E-013
 0.912959E-013
 0.913034E-013
 0.913108E-013
 0.913181E-013
 0.913253E-013
 0.913325E-013
 0.913395E-013
 0.913465E-013
 0.913534E-013
 0.913601E-013
 0.913668E-013
 0.913733E-013
 0.913797E-013
 0.913860E-013
 0.913921E-013
 0.913981E-013
 0.914039E-013
 0.914096E-013
 0.914150E-013
 0.914203E-013
 0.914254E-013
 0.914304E-013
 0.914351E-013
 0.914396E-013
 0.914438E-013
 0.914479E-013
 0.914517E-013
 0.914553E-013
 0.914586E-013
 0.914617E-013
 0.914645E-013
 0.914670E-013
 0.914693E-013
 0.914713E-013
 0.914731E-013
 0.914745E-013
 0.914757E-013
 0.914765E-013
 0.914771E-013
 0.914774E-013
 0.914774E-013
 0.914771E-013
 0.914765E-013
 0.914757E-013
 0.914745E-013
 0.914730E-013
 0.914713E-013
 0.914693E-013
 0.914670E-013
 0.914645E-013
 0.914617E-013
 0.914586E-013
 0.914553E-013
 0.914517E-013
 0.914479E-013
 0.914438E-013
 0.914396E-013
 0.914351E-013
 0.914304E-013
 0.914254E-013
 0.914203E-013
 0.914150E-013
 0.914095E-013
 0.914039E-013
 0.913981E-013
 0.913921E-013
 0.913860E-013
 0.913797E-013
 0.913733E-013
 0.913668E-013
 0.913601E-013
 0.913533E-013
 0.913465E-013
 0.913395E-013
 0.913324E-013
 0.913253E-013
 0.913181E-013
 0.913108E-013
 0.913034E-013
 0.912959E-013
 0.912884E-013
 0.912809E-013
 0.912732E-013
 0.912656E-013
 0.912579E-013
 0.912501E-013
 0.912423E-013
 0.912345E-013
 0.912266E-013
 0.912187E-013
 0.912107E-013
 0.912028E-013
 0.911948E-013
 0.911868E-013
 0.911787E-013
 0.911706E-013
 0.911625E-013
 0.911544E-013
 0.911462E-013
 0.911388E-013
 0.911250E-013
 0.911495E-013
 0.909905E-013
 0.914916E-013
 0.915809E-013
 0.909326E-013
 0.911250E-013
 0.910812E-013
 0.910869E-013
 0.910845E-013
 0.910831E-013
 0.910817E-013
 0.910802E-013
 0.910788E-013
 0.910774E-013
 0.910759E-013
 0.910745E-013
 0.910731E-013
 0.910717E-013
 0.910703E-013
 0.910689E-013
 0.910675E-013
 0.910661E-013
 0.910647E-013
 0.910634E-013
 0.910620E-013
 0.910606E-013
 0.910593E-013
 0.910580E-013
 0.910567E-013
 0.910554E-013
 0.910541E-013
 0.910528E-013
 0.910515E-013
 0.910503E-013
 0.910491E-013
 0.910479E-013
 0.910467E-013
 0.910455E-013
 0.910444E-013
 0.910432E-013
 0.910421E-013
 0.910411E-013
 0.910400E-013
 0.910390E-013
 0.910380E-013
 0.910371E-013
 0.910361E-013
 0.910353E-013
 0.910344E-013
 0.910336E-013
 0.910328E-013
 0.910321E-013
 0.910314E-013
 0.910307E-013
 0.910301E-013
 0.910295E-013
 0.910290E-013
 0.910285E-013
 0.910281E-013
 0.910277E-013
 0.910273E-013
 0.910270E-013
 0.910268E-013
 0.910266E-013
 0.910264E-013
 0.910263E-013
 0.910263E-013
 0.910263E-013
 0.910263E-013
 0.910264E-013
 0.910266E-013
 0.910268E-013
 0.910270E-013
 0.910273E-013
 0.910277E-013
 0.910281E-013
 0.910285E-013
 0.910290E-013
 0.910295E-013
 0.910301E-013
 0.910307E-013
 0.910314E-013
 0.910321E-013
 0.910328E-013
 0.910336E-013
 0.910344E-013
 0.910353E-013
 0.910361E-013
 0.910371E-013
 0.910380E-013
 0.910390E-013
 0.910400E-013
 0.910411E-013
 0.910421E-013
 0.910432E-013
 0.910444E-013
 0.910455E-013
 0.910467E-013
 0.910479E-013
 0.910491E-013
 0.910503E-013
 0.910515E-013
 0.910528E-013
 0.910541E-013
 0.910554E-013
 0.910567E-013
 0.910580E-013
 0.910593E-013
 0.910607E-013
 0.910620E-013
 0.910634E-013
 0.910647E-013
 0.910661E-013
 0.910675E-013
 0.910689E-013
 0.910703E-013
 0.910717E-013
 0.910731E-013
 0.910745E-013
 0.910759E-013
 0.910774E-013
 0.910788E-013
 0.910802E-013
 0.910817E-013
 0.910831E-013
 0.910845E-013
 0.910869E-013
 0.910812E-013
 0.911250E-013
 0.909326E-013
 0.915808E-013
 0.916865E-013
 0.909014E-013
 0.911388E-013
 0.910869E-013
 0.910961E-013
 0.910950E-013
 0.910954E-013
 0.910956E-013
 0.910958E-013
 0.910960E-013
 0.910962E-013
 0.910964E-013
 0.910966E-013
 0.910968E-013
 0.910970E-013
 0.910972E-013
 0.910974E-013
 0.910976E-013
 0.910978E-013
 0.910980E-013
 0.910982E-013
 0.910984E-013
 0.910986E-013
 0.910988E-013
 0.910990E-013
 0.910992E-013
 0.910994E-013
 0.910996E-013
 0.910998E-013
 0.911000E-013
 0.911002E-013
 0.911003E-013
 0.911005E-013
 0.911007E-013
 0.911009E-013
 0.911011E-013
 0.911012E-013
 0.911014E-013
 0.911016E-013
 0.911017E-013
 0.911019E-013
 0.911021E-013
 0.911022E-013
 0.911024E-013
 0.911025E-013
 0.911027E-013
 0.911028E-013
 0.911029E-013
 0.911031E-013
 0.911032E-013
 0.911033E-013
 0.911034E-013
 0.911035E-013
 0.911036E-013
 0.911037E-013
 0.911037E-013
 0.911038E-013
 0.911039E-013
 0.911039E-013
 0.911040E-013
 0.911040E-013
 0.911040E-013
 0.911041E-013
 0.911041E-013
 0.911041E-013
 0.911041E-013
 0.911040E-013
 0.911040E-013
 0.911040E-013
 0.911039E-013
 0.911039E-013
 0.911038E-013
 0.911038E-013
 0.911037E-013
 0.911036E-013
 0.911035E-013
 0.911034E-013
 0.911033E-013
 0.911032E-013
 0.911031E-013
 0.911029E-013
 0.911028E-013
 0.911027E-013
 0.911025E-013
 0.911024E-013
 0.911022E-013
 0.911021E-013
 0.911019E-013
 0.911017E-013
 0.911016E-013
 0.911014E-013
 0.911012E-013
 0.911011E-013
 0.911009E-013
 0.911007E-013
 0.911005E-013
 0.911003E-013
 0.911002E-013
 0.911000E-013
 0.910998E-013
 0.910996E-013
 0.910994E-013
 0.910992E-013
 0.910990E-013
 0.910988E-013
 0.910986E-013
 0.910984E-013
 0.910982E-013
 0.910980E-013
 0.910978E-013
 0.910976E-013
 0.910974E-013
 0.910972E-013
 0.910970E-013
 0.910968E-013
 0.910966E-013
 0.910964E-013
 0.910962E-013
 0.910960E-013
 0.910958E-013
 0.910956E-013
 0.910954E-013
 0.910950E-013
 0.910961E-013
 0.910869E-013
 0.911388E-013
 0.909014E-013
 0.916864E-013
 0.917892E-013
 0.908660E-013
 0.911462E-013
 0.910845E-013
 0.910950E-013
 0.910935E-013
 0.910937E-013
 0.910936E-013
 0.910936E-013
 0.910936E-013
 0.910935E-013
 0.910935E-013
 0.910935E-013
 0.910935E-013
 0.910935E-013
 0.910934E-013
 0.910934E-013
 0.910934E-013
 0.910934E-013
 0.910933E-013
 0.910933E-013
 0.910933E-013
 0.910933E-013
 0.910933E-013
 0.910932E-013
 0.910932E-013
 0.910932E-013
 0.910932E-013
 0.910932E-013
 0.910932E-013
 0.910932E-013
 0.910932E-013
 0.910931E-013
 0.910931E-013
 0.910931E-013
 0.910931E-013
 0.910931E-013
 0.910931E-013
 0.910931E-013
 0.910931E-013
 0.910931E-013
 0.910931E-013
 0.910931E-013
 0.910931E-013
 0.910931E-013
 0.910931E-013
 0.910932E-013
 0.910932E-013
 0.910932E-013
 0.910932E-013
 0.910932E-013
 0.910932E-013
 0.910932E-013
 0.910932E-013
 0.910932E-013
 0.910932E-013
 0.910932E-013
 0.910932E-013
 0.910932E-013
 0.910932E-013
 0.910933E-013
 0.910933E-013
 0.910933E-013
 0.910933E-013
 0.910933E-013
 0.910933E-013
 0.910933E-013
 0.910933E-013
 0.910932E-013
 0.910932E-013
 0.910932E-013
 0.910932E-013
 0.910932E-013
 0.910932E-013
 0.910932E-013
 0.910932E-013
 0.910932E-013
 0.910932E-013
 0.910932E-013
 0.910932E-013
 0.910932E-013
 0.910932E-013
 0.910931E-013
 0.910931E-013
 0.910931E-013
 0.910931E-013
 0.910931E-013
 0.910931E-013
 0.910931E-013
 0.910931E-013
 0.910931E-013
 0.910931E-013
 0.910931E-013
 0.910931E-013
 0.910931E-013
 0.910932E-013
 0.910932E-013
 0.910932E-013
 0.910932E-013
 0.910932E-013
 0.910932E-013
 0.910932E-013
 0.910932E-013
 0.910933E-013
 0.910933E-013
 0.910933E-013
 0.910933E-013
 0.910933E-013
 0.910933E-013
 0.910934E-013
 0.910934E-013
 0.910934E-013
 0.910934E-013
 0.910935E-013
 0.910935E-013
 0.910935E-013
 0.910935E-013
 0.910936E-013
 0.910936E-013
 0.910936E-013
 0.910936E-013
 0.910937E-013
 0.910935E-013
 0.910950E-013
 0.910845E-013
 0.911462E-013
 0.908660E-013
 0.917892E-013
 0.918921E-013
 0.908313E-013
 0.911544E-013
 0.910831E-013
 0.910954E-013
 0.910937E-013
 0.910939E-013
 0.910938E-013
 0.910939E-013
 0.910939E-013
 0.910939E-013
 0.910939E-013
 0.910939E-013
 0.910939E-013
 0.910939E-013
 0.910939E-013
 0.910939E-013
 0.910939E-013
 0.910939E-013
 0.910939E-013
 0.910939E-013
 0.910939E-013
 0.910939E-013
 0.910939E-013
 0.910939E-013
 0.910939E-013
 0.910940E-013
 0.910940E-013
 0.910940E-013
 0.910940E-013
 0.910940E-013
 0.910940E-013
 0.910940E-013
 0.910941E-013
 0.910941E-013
 0.910941E-013
 0.910941E-013
 0.910941E-013
 0.910942E-013
 0.910942E-013
 0.910942E-013
 0.910942E-013
 0.910943E-013
 0.910943E-013
 0.910943E-013
 0.910943E-013
 0.910944E-013
 0.910944E-013
 0.910944E-013
 0.910945E-013
 0.910945E-013
 0.910945E-013
 0.910945E-013
 0.910945E-013
 0.910946E-013
 0.910946E-013
 0.910946E-013
 0.910946E-013
 0.910946E-013
 0.910946E-013
 0.910947E-013
 0.910947E-013
 0.910947E-013
 0.910947E-013
 0.910947E-013
 0.910947E-013
 0.910947E-013
 0.910947E-013
 0.910947E-013
 0.910946E-013
 0.910946E-013
 0.910946E-013
 0.910946E-013
 0.910946E-013
 0.910946E-013
 0.910945E-013
 0.910945E-013
 0.910945E-013
 0.910945E-013
 0.910944E-013
 0.910944E-013
 0.910944E-013
 0.910944E-013
 0.910943E-013
 0.910943E-013
 0.910943E-013
 0.910942E-013
 0.910942E-013
 0.910942E-013
 0.910942E-013
 0.910941E-013
 0.910941E-013
 0.910941E-013
 0.910941E-013
 0.910941E-013
 0.910940E-013
 0.910940E-013
 0.910940E-013
 0.910940E-013
 0.910940E-013
 0.910940E-013
 0.910940E-013
 0.910940E-013
 0.910939E-013
 0.910939E-013
 0.910939E-013
 0.910939E-013
 0.910939E-013
 0.910939E-013
 0.910939E-013
 0.910939E-013
 0.910939E-013
 0.910939E-013
 0.910939E-013
 0.910939E-013
 0.910939E-013
 0.910939E-013
 0.910939E-013
 0.910939E-013
 0.910939E-013
 0.910939E-013
 0.910939E-013
 0.910937E-013
 0.910954E-013
 0.910831E-013
 0.911544E-013
 0.908313E-013
 0.918920E-013
 0.919947E-013
 0.907966E-013
 0.911625E-013
 0.910817E-013
 0.910956E-013
 0.910936E-013
 0.910938E-013
 0.910938E-013
 0.910938E-013
 0.910938E-013
 0.910938E-013
 0.910938E-013
 0.910938E-013
 0.910938E-013
 0.910938E-013
 0.910938E-013
 0.910938E-013
 0.910938E-013
 0.910938E-013
 0.910938E-013
 0.910939E-013
 0.910939E-013
 0.910939E-013
 0.910939E-013
 0.910939E-013
 0.910939E-013
 0.910939E-013
 0.910939E-013
 0.910939E-013
 0.910939E-013
 0.910940E-013
 0.910940E-013
 0.910940E-013
 0.910940E-013
 0.910940E-013
 0.910940E-013
 0.910941E-013
 0.910941E-013
 0.910941E-013
 0.910941E-013
 0.910942E-013
 0.910942E-013
 0.910942E-013
 0.910943E-013
 0.910943E-013
 0.910943E-013
 0.910943E-013
 0.910944E-013
 0.910944E-013
 0.910944E-013
 0.910945E-013
 0.910945E-013
 0.910945E-013
 0.910945E-013
 0.910946E-013
 0.910946E-013
 0.910946E-013
 0.910946E-013
 0.910946E-013
 0.910947E-013
 0.910947E-013
 0.910947E-013
 0.910947E-013
 0.910947E-013
 0.910947E-013
 0.910947E-013
 0.910947E-013
 0.910947E-013
 0.910947E-013
 0.910946E-013
 0.910946E-013
 0.910946E-013
 0.910946E-013
 0.910946E-013
 0.910945E-013
 0.910945E-013
 0.910945E-013
 0.910945E-013
 0.910944E-013
 0.910944E-013
 0.910944E-013
 0.910943E-013
 0.910943E-013
 0.910943E-013
 0.910943E-013
 0.910942E-013
 0.910942E-013
 0.910942E-013
 0.910941E-013
 0.910941E-013
 0.910941E-013
 0.910941E-013
 0.910940E-013
 0.910940E-013
 0.910940E-013
 0.910940E-013
 0.910940E-013
 0.910940E-013
 0.910939E-013
 0.910939E-013
 0.910939E-013
 0.910939E-013
 0.910939E-013
 0.910939E-013
 0.910939E-013
 0.910939E-013
 0.910939E-013
 0.910939E-013
 0.910939E-013
 0.910938E-013
 0.910938E-013
 0.910938E-013
 0.910938E-013
 0.910938E-013
 0.910938E-013
 0.910938E-013
 0.910938E-013
 0.910938E-013
 0.910938E-013
 0.910938E-013
 0.910938E-013
 0.910939E-013
 0.910936E-013
 0.910956E-013
 0.910817E-013
 0.911625E-013
 0.907966E-013
 0.919946E-013
 0.920970E-013
 0.907619E-013
 0.911706E-013
 0.910802E-013
 0.910958E-013
 0.910936E-013
 0.910939E-013
 0.910938E-013
 0.910938E-013
 0.910938E-013
 0.910938E-013
 0.910938E-013
 0.910938E-013
 0.910938E-013
 0.910938E-013
 0.910938E-013
 0.910938E-013
 0.910938E-013
 0.910939E-013
 0.910939E-013
 0.910939E-013
 0.910939E-013
 0.910939E-013
 0.910939E-013
 0.910939E-013
 0.910939E-013
 0.910939E-013
 0.910939E-013
 0.910940E-013
 0.910940E-013
 0.910940E-013
 0.910940E-013
 0.910940E-013
 0.910940E-013
 0.910941E-013
 0.910941E-013
 0.910941E-013
 0.910942E-013
 0.910942E-013
 0.910942E-013
 0.910942E-013
 0.910943E-013
 0.910943E-013
 0.910943E-013
 0.910944E-013
 0.910944E-013
 0.910945E-013
 0.910945E-013
 0.910945E-013
 0.910946E-013
 0.910946E-013
 0.910946E-013
 0.910947E-013
 0.910947E-013
 0.910947E-013
 0.910947E-013
 0.910948E-013
 0.910948E-013
 0.910948E-013
 0.910948E-013
 0.910948E-013
 0.910948E-013
 0.910949E-013
 0.910949E-013
 0.910949E-013
 0.910949E-013
 0.910948E-013
 0.910948E-013
 0.910948E-013
 0.910948E-013
 0.910948E-013
 0.910948E-013
 0.910947E-013
 0.910947E-013
 0.910947E-013
 0.910947E-013
 0.910946E-013
 0.910946E-013
 0.910946E-013
 0.910945E-013
 0.910945E-013
 0.910945E-013
 0.910944E-013
 0.910944E-013
 0.910944E-013
 0.910943E-013
 0.910943E-013
 0.910942E-013
 0.910942E-013
 0.910942E-013
 0.910942E-013
 0.910941E-013
 0.910941E-013
 0.910941E-013
 0.910941E-013
 0.910940E-013
 0.910940E-013
 0.910940E-013
 0.910940E-013
 0.910940E-013
 0.910939E-013
 0.910939E-013
 0.910939E-013
 0.910939E-013
 0.910939E-013
 0.910939E-013
 0.910939E-013
 0.910939E-013
 0.910939E-013
 0.910939E-013
 0.910939E-013
 0.910938E-013
 0.910938E-013
 0.910938E-013
 0.910938E-013
 0.910938E-013
 0.910938E-013
 0.910938E-013
 0.910938E-013
 0.910938E-013
 0.910938E-013
 0.910939E-013
 0.910936E-013
 0.910958E-013
 0.910802E-013
 0.911706E-013
 0.907620E-013
 0.920969E-013
 0.921991E-013
 0.907274E-013
 0.911787E-013
 0.910788E-013
 0.910960E-013
 0.910936E-013
 0.910939E-013
 0.910938E-013
 0.910938E-013
 0.910938E-013
 0.910938E-013
 0.910938E-013
 0.910938E-013
 0.910938E-013
 0.910938E-013
 0.910938E-013
 0.910938E-013
 0.910939E-013
 0.910939E-013
 0.910939E-013
 0.910939E-013
 0.910939E-013
 0.910939E-013
 0.910939E-013
 0.910939E-013
 0.910939E-013
 0.910939E-013
 0.910940E-013
 0.910940E-013
 0.910940E-013
 0.910940E-013
 0.910940E-013
 0.910941E-013
 0.910941E-013
 0.910941E-013
 0.910941E-013
 0.910942E-013
 0.910942E-013
 0.910942E-013
 0.910943E-013
 0.910943E-013
 0.910944E-013
 0.910944E-013
 0.910944E-013
 0.910945E-013
 0.910945E-013
 0.910946E-013
 0.910946E-013
 0.910947E-013
 0.910947E-013
 0.910947E-013
 0.910948E-013
 0.910948E-013
 0.910948E-013
 0.910949E-013
 0.910949E-013
 0.910949E-013
 0.910950E-013
 0.910950E-013
 0.910950E-013
 0.910950E-013
 0.910950E-013
 0.910950E-013
 0.910950E-013
 0.910950E-013
 0.910950E-013
 0.910950E-013
 0.910950E-013
 0.910950E-013
 0.910950E-013
 0.910950E-013
 0.910949E-013
 0.910949E-013
 0.910949E-013
 0.910948E-013
 0.910948E-013
 0.910948E-013
 0.910947E-013
 0.910947E-013
 0.910947E-013
 0.910946E-013
 0.910946E-013
 0.910945E-013
 0.910945E-013
 0.910944E-013
 0.910944E-013
 0.910944E-013
 0.910943E-013
 0.910943E-013
 0.910943E-013
 0.910942E-013
 0.910942E-013
 0.910942E-013
 0.910941E-013
 0.910941E-013
 0.910941E-013
 0.910940E-013
 0.910940E-013
 0.910940E-013
 0.910940E-013
 0.910940E-013
 0.910939E-013
 0.910939E-013
 0.910939E-013
 0.910939E-013
 0.910939E-013
 0.910939E-013
 0.910939E-013
 0.910939E-013
 0.910939E-013
 0.910939E-013
 0.910939E-013
 0.910938E-013
 0.910938E-013
 0.910938E-013
 0.910938E-013
 0.910938E-013
 0.910938E-013
 0.910938E-013
 0.910938E-013
 0.910938E-013
 0.910939E-013
 0.910936E-013
 0.910960E-013
 0.910788E-013
 0.911787E-013
 0.907275E-013
 0.921990E-013
 0.923010E-013
 0.906930E-013
 0.911868E-013
 0.910774E-013
 0.910962E-013
 0.910935E-013
 0.910939E-013
 0.910938E-013
 0.910938E-013
 0.910938E-013
 0.910938E-013
 0.910938E-013
 0.910938E-013
 0.910938E-013
 0.910938E-013
 0.910938E-013
 0.910939E-013
 0.910939E-013
 0.910939E-013
 0.910939E-013
 0.910939E-013
 0.910939E-013
 0.910939E-013
 0.910939E-013
 0.910939E-013
 0.910939E-013
 0.910940E-013
 0.910940E-013
 0.910940E-013
 0.910940E-013
 0.910941E-013
 0.910941E-013
 0.910941E-013
 0.910941E-013
 0.910942E-013
 0.910942E-013
 0.910942E-013
 0.910943E-013
 0.910943E-013
 0.910944E-013
 0.910944E-013
 0.910945E-013
 0.910945E-013
 0.910946E-013
 0.910946E-013
 0.910947E-013
 0.910947E-013
 0.910948E-013
 0.910948E-013