# vtk DataFile Version 3.0
Solution data
ASCII
DATASET STRUCTURED_GRID
DIMENSIONS 128 128 1
POINTS 16384  double
      0.000004      0.000004      0.000000
      0.000012      0.000004      0.000000
      0.000020      0.000004      0.000000
      0.000027      0.000004      0.000000
      0.000035      0.000004      0.000000
      0.000043      0.000004      0.000000
      0.000051      0.000004      0.000000
      0.000059      0.000004      0.000000
      0.000066      0.000004      0.000000
      0.000074      0.000004      0.000000
      0.000082      0.000004      0.000000
      0.000090      0.000004      0.000000
      0.000098      0.000004      0.000000
      0.000105      0.000004      0.000000
      0.000113      0.000004      0.000000
      0.000121      0.000004      0.000000
      0.000129      0.000004      0.000000
      0.000137      0.000004      0.000000
      0.000145      0.000004      0.000000
      0.000152      0.000004      0.000000
      0.000160      0.000004      0.000000
      0.000168      0.000004      0.000000
      0.000176      0.000004      0.000000
      0.000184      0.000004      0.000000
      0.000191      0.000004      0.000000
      0.000199      0.000004      0.000000
      0.000207      0.000004      0.000000
      0.000215      0.000004      0.000000
      0.000223      0.000004      0.000000
      0.000230      0.000004      0.000000
      0.000238      0.000004      0.000000
      0.000246      0.000004      0.000000
      0.000254      0.000004      0.000000
      0.000262      0.000004      0.000000
      0.000270      0.000004      0.000000
      0.000277      0.000004      0.000000
      0.000285      0.000004      0.000000
      0.000293      0.000004      0.000000
      0.000301      0.000004      0.000000
      0.000309      0.000004      0.000000
      0.000316      0.000004      0.000000
      0.000324      0.000004      0.000000
      0.000332      0.000004      0.000000
      0.000340      0.000004      0.000000
      0.000348      0.000004      0.000000
      0.000355      0.000004      0.000000
      0.000363      0.000004      0.000000
      0.000371      0.000004      0.000000
      0.000379      0.000004      0.000000
      0.000387      0.000004      0.000000
      0.000395      0.000004      0.000000
      0.000402      0.000004      0.000000
      0.000410      0.000004      0.000000
      0.000418      0.000004      0.000000
      0.000426      0.000004      0.000000
      0.000434      0.000004      0.000000
      0.000441      0.000004      0.000000
      0.000449      0.000004      0.000000
      0.000457      0.000004      0.000000
      0.000465      0.000004      0.000000
      0.000473      0.000004      0.000000
      0.000480      0.000004      0.000000
      0.000488      0.000004      0.000000
      0.000496      0.000004      0.000000
      0.000504      0.000004      0.000000
      0.000512      0.000004      0.000000
      0.000520      0.000004      0.000000
      0.000527      0.000004      0.000000
      0.000535      0.000004      0.000000
      0.000543      0.000004      0.000000
      0.000551      0.000004      0.000000
      0.000559      0.000004      0.000000
      0.000566      0.000004      0.000000
      0.000574      0.000004      0.000000
      0.000582      0.000004      0.000000
      0.000590      0.000004      0.000000
      0.000598      0.000004      0.000000
      0.000605      0.000004      0.000000
      0.000613      0.000004      0.000000
      0.000621      0.000004      0.000000
      0.000629      0.000004      0.000000
      0.000637      0.000004      0.000000
      0.000645      0.000004      0.000000
      0.000652      0.000004      0.000000
      0.000660      0.000004      0.000000
      0.000668      0.000004      0.000000
      0.000676      0.000004      0.000000
      0.000684      0.000004      0.000000
      0.000691      0.000004      0.000000
      0.000699      0.000004      0.000000
      0.000707      0.000004      0.000000
      0.000715      0.000004      0.000000
      0.000723      0.000004      0.000000
      0.000730      0.000004      0.000000
      0.000738      0.000004      0.000000
      0.000746      0.000004      0.000000
      0.000754      0.000004      0.000000
      0.000762      0.000004      0.000000
      0.000770      0.000004      0.000000
      0.000777      0.000004      0.000000
      0.000785      0.000004      0.000000
      0.000793      0.000004      0.000000
      0.000801      0.000004      0.000000
      0.000809      0.000004      0.000000
      0.000816      0.000004      0.000000
      0.000824      0.000004      0.000000
      0.000832      0.000004      0.000000
      0.000840      0.000004      0.000000
      0.000848      0.000004      0.000000
      0.000855      0.000004      0.000000
      0.000863      0.000004      0.000000
      0.000871      0.000004      0.000000
      0.000879      0.000004      0.000000
      0.000887      0.000004      0.000000
      0.000895      0.000004      0.000000
      0.000902      0.000004      0.000000
      0.000910      0.000004      0.000000
      0.000918      0.000004      0.000000
      0.000926      0.000004      0.000000
      0.000934      0.000004      0.000000
      0.000941      0.000004      0.000000
      0.000949      0.000004      0.000000
      0.000957      0.000004      0.000000
      0.000965      0.000004      0.000000
      0.000973      0.000004      0.000000
      0.000980      0.000004      0.000000
      0.000988      0.000004      0.000000
      0.000996      0.000004      0.000000
      0.000004      0.000012      0.000000
      0.000012      0.000012      0.000000
      0.000020      0.000012      0.000000
      0.000027      0.000012      0.000000
      0.000035      0.000012      0.000000
      0.000043      0.000012      0.000000
      0.000051      0.000012      0.000000
      0.000059      0.000012      0.000000
      0.000066      0.000012      0.000000
      0.000074      0.000012      0.000000
      0.000082      0.000012      0.000000
      0.000090      0.000012      0.000000
      0.000098      0.000012      0.000000
      0.000105      0.000012      0.000000
      0.000113      0.000012      0.000000
      0.000121      0.000012      0.000000
      0.000129      0.000012      0.000000
      0.000137      0.000012      0.000000
      0.000145      0.000012      0.000000
      0.000152      0.000012      0.000000
      0.000160      0.000012      0.000000
      0.000168      0.000012      0.000000
      0.000176      0.000012      0.000000
      0.000184      0.000012      0.000000
      0.000191      0.000012      0.000000
      0.000199      0.000012      0.000000
      0.000207      0.000012      0.000000
      0.000215      0.000012      0.000000
      0.000223      0.000012      0.000000
      0.000230      0.000012      0.000000
      0.000238      0.000012      0.000000
      0.000246      0.000012      0.000000
      0.000254      0.000012      0.000000
      0.000262      0.000012      0.000000
      0.000270      0.000012      0.000000
      0.000277      0.000012      0.000000
      0.000285      0.000012      0.000000
      0.000293      0.000012      0.000000
      0.000301      0.000012      0.000000
      0.000309      0.000012      0.000000
      0.000316      0.000012      0.000000
      0.000324      0.000012      0.000000
      0.000332      0.000012      0.000000
      0.000340      0.000012      0.000000
      0.000348      0.000012      0.000000
      0.000355      0.000012      0.000000
      0.000363      0.000012      0.000000
      0.000371      0.000012      0.000000
      0.000379      0.000012      0.000000
      0.000387      0.000012      0.000000
      0.000395      0.000012      0.000000
      0.000402      0.000012      0.000000
      0.000410      0.000012      0.000000
      0.000418      0.000012      0.000000
      0.000426      0.000012      0.000000
      0.000434      0.000012      0.000000
      0.000441      0.000012      0.000000
      0.000449      0.000012      0.000000
      0.000457      0.000012      0.000000
      0.000465      0.000012      0.000000
      0.000473      0.000012      0.000000
      0.000480      0.000012      0.000000
      0.000488      0.000012      0.000000
      0.000496      0.000012      0.000000
      0.000504      0.000012      0.000000
      0.000512      0.000012      0.000000
      0.000520      0.000012      0.000000
      0.000527      0.000012      0.000000
      0.000535      0.000012      0.000000
      0.000543      0.000012      0.000000
      0.000551      0.000012      0.000000
      0.000559      0.000012      0.000000
      0.000566      0.000012      0.000000
      0.000574      0.000012      0.000000
      0.000582      0.000012      0.000000
      0.000590      0.000012      0.000000
      0.000598      0.000012      0.000000
      0.000605      0.000012      0.000000
      0.000613      0.000012      0.000000
      0.000621      0.000012      0.000000
      0.000629      0.000012      0.000000
      0.000637      0.000012      0.000000
      0.000645      0.000012      0.000000
      0.000652      0.000012      0.000000
      0.000660      0.000012      0.000000
      0.000668      0.000012      0.000000
      0.000676      0.000012      0.000000
      0.000684      0.000012      0.000000
      0.000691      0.000012      0.000000
      0.000699      0.000012      0.000000
      0.000707      0.000012      0.000000
      0.000715      0.000012      0.000000
      0.000723      0.000012      0.000000
      0.000730      0.000012      0.000000
      0.000738      0.000012      0.000000
      0.000746      0.000012      0.000000
      0.000754      0.000012      0.000000
      0.000762      0.000012      0.000000
      0.000770      0.000012      0.000000
      0.000777      0.000012      0.000000
      0.000785      0.000012      0.000000
[...]
POINT_DATA 16384
SCALARS rhoe double
LOOKUP_TABLE default
 0.916394E-013
 0.912446E-013
 0.915427E-013
 0.915515E-013
 0.916628E-013
 0.917425E-013
 0.918303E-013
 0.919159E-013
 0.920017E-013
 0.920872E-013
 0.921724E-013
 0.922573E-013
 0.923419E-013
 0.924262E-013
 0.925102E-013
 0.925939E-013
 0.926771E-013
 0.927600E-013
 0.928425E-013
 0.929245E-013
 0.930060E-013
 0.930870E-013
 0.931675E-013
 0.932473E-013
 0.933266E-013
 0.934051E-013
 0.934829E-013
 0.935600E-013
 0.936362E-013
 0.937115E-013
 0.937859E-013
 0.938592E-013
 0.939315E-013
 0.940026E-013
 0.940725E-013
 0.941411E-013
 0.942083E-013
 0.942741E-013
 0.943384E-013
 0.944011E-013
 0.944621E-013
 0.945213E-013
 0.945787E-013
 0.946342E-013
 0.946877E-013
 0.947391E-013
 0.947883E-013
 0.948353E-013
 0.948800E-013
 0.949223E-013
 0.949621E-013
 0.949994E-013
 0.950341E-013
 0.950662E-013
 0.950955E-013
 0.951221E-013
 0.951458E-013
 0.951667E-013
 0.951846E-013
 0.951997E-013
 0.952117E-013
 0.952208E-013
 0.952268E-013
 0.952299E-013
 0.952299E-013
 0.952268E-013
 0.952208E-013
 0.952117E-013
 0.951997E-013
 0.951846E-013
 0.951667E-013
 0.951458E-013
 0.951221E-013
 0.950955E-013
 0.950662E-013
 0.950341E-013
 0.949994E-013
 0.949621E-013
 0.949223E-013
 0.948800E-013
 0.948353E-013
 0.947883E-013
 0.947391E-013
 0.946877E-013
 0.946342E-013
 0.945787E-013
 0.945213E-013
 0.944621E-013
 0.944011E-013
 0.943384E-013
 0.942742E-013
 0.942084E-013
 0.941411E-013
 0.940725E-013
 0.940026E-013
 0.939315E-013
 0.938592E-013
 0.937859E-013
 0.937115E-013
 0.936362E-013
 0.935600E-013
 0.934830E-013
 0.934051E-013
 0.933266E-013
 0.932474E-013
 0.931675E-013
 0.930870E-013
 0.930060E-013
 0.929245E-013
 0.928425E-013
 0.927600E-013
 0.926771E-013
 0.925939E-013
 0.925102E-013
 0.924262E-013
 0.923419E-013
 0.922573E-013
 0.921724E-013
 0.920872E-013
 0.920017E-013
 0.919159E-013
 0.918303E-013
 0.917425E-013
 0.916628E-013
 0.915515E-013
 0.915427E-013
 0.912446E-013
 0.916394E-013
 0.912446E-013
 0.907776E-013
 0.909436E-013
 0.907978E-013
 0.907763E-013
 0.907138E-013
 0.906631E-013
 0.906096E-013
 0.905570E-013
 0.905043E-013
 0.904518E-013
 0.903996E-013
 0.903475E-013
 0.902956E-013
 0.902439E-013
 0.901924E-013
 0.901411E-013
 0.900901E-013
 0.900393E-013
 0.899888E-013
 0.899386E-013
 0.898887E-013
 0.898392E-013
 0.897900E-013
 0.897412E-013
 0.896928E-013
 0.896449E-013
 0.895974E-013
 0.895504E-013
 0.895040E-013
 0.894582E-013
 0.894130E-013
 0.893684E-013
 0.893246E-013
 0.892815E-013
 0.892391E-013
 0.891977E-013
 0.891571E-013
 0.891174E-013
 0.890788E-013
 0.890411E-013
 0.890046E-013
 0.889692E-013
 0.889349E-013
 0.889019E-013
 0.888702E-013
 0.888398E-013
 0.888108E-013
 0.887832E-013
 0.887570E-013
 0.887324E-013
 0.887094E-013
 0.886880E-013
 0.886682E-013
 0.886501E-013
 0.886337E-013
 0.886190E-013
 0.886061E-013
 0.885950E-013
 0.885857E-013
 0.885783E-013
 0.885727E-013
 0.885689E-013
 0.885670E-013
 0.885670E-013
 0.885689E-013
 0.885727E-013
 0.885783E-013
 0.885857E-013
 0.885950E-013
 0.886061E-013
 0.886190E-013
 0.886337E-013
 0.886501E-013
 0.886682E-013
 0.886880E-013
 0.887094E-013
 0.887325E-013
 0.887571E-013
 0.887832E-013
 0.888108E-013
 0.888398E-013
 0.888702E-013
 0.889019E-013
 0.889349E-013
 0.889692E-013
 0.890046E-013
 0.890411E-013
 0.890788E-013
 0.891175E-013
 0.891571E-013
 0.891977E-013
 0.892392E-013
 0.892815E-013
 0.893246E-013
 0.893684E-013
 0.894130E-013
 0.894582E-013
 0.895040E-013
 0.895504E-013
 0.895974E-013
 0.896449E-013
 0.896928E-013
 0.897412E-013
 0.897900E-013
 0.898392E-013
 0.898888E-013
 0.899386E-013
 0.899888E-013
 0.900393E-013
 0.900901E-013
 0.901411E-013
 0.901924E-013
 0.902439E-013
 0.902956E-013
 0.903475E-013
 0.903996E-013
 0.904519E-013
 0.905043E-013
 0.905570E-013
 0.906096E-013
 0.906631E-013
 0.907138E-013
 0.907763E-013
 0.907978E-013
 0.909436E-013
 0.907776E-013
 0.912446E-013
 0.915427E-013
 0.909436E-013
 0.912874E-013
 0.911804E-013
 0.912509E-013
 0.912626E-013
 0.912909E-013
 0.913150E-013
 0.913399E-013
 0.913646E-013
 0.913892E-013
 0.914138E-013
 0.914382E-013
 0.914625E-013
 0.914868E-013
 0.915109E-013
 0.915350E-013
 0.915589E-013
 0.915827E-013
 0.916064E-013
 0.916299E-013
 0.916533E-013
 0.916765E-013
 0.916995E-013
 0.917224E-013
 0.917451E-013
 0.917675E-013
 0.917898E-013
 0.918118E-013
 0.918335E-013
 0.918550E-013
 0.918761E-013
 0.918970E-013
 0.919175E-013
 0.919377E-013
 0.919575E-013
 0.919770E-013
 0.919960E-013
 0.920145E-013
 0.920326E-013
 0.920503E-013
 0.920674E-013
 0.920840E-013
 0.921000E-013
 0.921155E-013
 0.921303E-013
 0.921445E-013
 0.921581E-013
 0.921711E-013
 0.921833E-013
 0.921948E-013
 0.922056E-013
 0.922156E-013
 0.922249E-013
 0.922334E-013
 0.922411E-013
 0.922479E-013
 0.922540E-013
 0.922592E-013
 0.922635E-013
 0.922670E-013
 0.922696E-013
 0.922714E-013
 0.922723E-013
 0.922723E-013
 0.922714E-013
 0.922696E-013
 0.922670E-013
 0.922635E-013
 0.922592E-013
 0.922540E-013
 0.922479E-013
 0.922411E-013
 0.922334E-013
 0.922249E-013
 0.922156E-013
 0.922056E-013
 0.921948E-013
 0.921833E-013
 0.921710E-013
 0.921581E-013
 0.921445E-013
 0.921303E-013
 0.921154E-013
 0.921000E-013
 0.920839E-013
 0.920674E-013
 0.920502E-013
 0.920326E-013
 0.920145E-013
 0.919959E-013
 0.919769E-013
 0.919575E-013
 0.919377E-013
 0.919175E-013
 0.918970E-013
 0.918761E-013
 0.918549E-013
 0.918335E-013
 0.918117E-013
 0.917897E-013
 0.917675E-013
 0.917450E-013
 0.917224E-013
 0.916995E-013
 0.916765E-013
 0.916532E-013
 0.916299E-013
 0.916063E-013
 0.915827E-013
 0.915589E-013
 0.915350E-013
 0.915109E-013
 0.914868E-013
 0.914625E-013
 0.914382E-013
 0.914138E-013
 0.913892E-013
 0.913646E-013
 0.913399E-013
 0.913150E-013
 0.912909E-013
 0.912626E-013
 0.912509E-013
 0.911804E-013
 0.912874E-013
 0.909436E-013
 0.915427E-013
 0.915515E-013
 0.907978E-013
 0.911804E-013
 0.910055E-013
 0.910537E-013
 0.910274E-013
 0.910223E-013
 0.910120E-013
 0.910029E-013
 0.909936E-013
 0.909844E-013
 0.909752E-013
 0.909660E-013
 0.909569E-013
 0.909478E-013
 0.909387E-013
 0.909297E-013
 0.909207E-013
 0.909117E-013
 0.909029E-013
 0.908940E-013
 0.908852E-013
 0.908765E-013
 0.908679E-013
 0.908593E-013
 0.908508E-013
 0.908423E-013
 0.908340E-013
 0.908257E-013
 0.908176E-013
 0.908095E-013
 0.908016E-013
 0.907937E-013
 0.907860E-013
 0.907784E-013
 0.907710E-013
 0.907637E-013
 0.907566E-013
 0.907496E-013
 0.907428E-013
 0.907362E-013
 0.907298E-013
 0.907235E-013
 0.907175E-013
 0.907117E-013
 0.907061E-013
 0.907008E-013
 0.906957E-013
 0.906908E-013
 0.906862E-013
 0.906819E-013
 0.906779E-013
 0.906741E-013
 0.906706E-013
 0.906674E-013
 0.906645E-013
 0.906620E-013
 0.906597E-013
 0.906577E-013
 0.906561E-013
 0.906548E-013
 0.906538E-013
 0.906532E-013
 0.906528E-013
 0.906528E-013
 0.906532E-013
 0.906538E-013
 0.906548E-013
 0.906561E-013
 0.906577E-013
 0.906597E-013
 0.906620E-013
 0.906645E-013
 0.906674E-013
 0.906706E-013
 0.906741E-013
 0.906779E-013
 0.906819E-013
 0.906862E-013
 0.906908E-013
 0.906957E-013
 0.907008E-013
 0.907061E-013
 0.907117E-013
 0.907175E-013
 0.907235E-013
 0.907298E-013
 0.907362E-013
 0.907428E-013
 0.907496E-013
 0.907566E-013
 0.907637E-013
 0.907710E-013
 0.907784E-013
 0.907860E-013
 0.907937E-013
 0.908016E-013
 0.908095E-013
 0.908176E-013
 0.908257E-013
 0.908340E-013
 0.908423E-013
 0.908508E-013
 0.908593E-013
 0.908679E-013
 0.908765E-013
 0.908853E-013
 0.908940E-013
 0.909029E-013
 0.909118E-013
 0.909207E-013
 0.909297E-013
 0.909387E-013
 0.909478E-013
 0.909569E-013
 0.909660E-013
 0.909752E-013
 0.909844E-013
 0.909936E-013
 0.910029E-013
 0.910120E-013
 0.910223E-013
 0.910274E-013
 0.910537E-013
 0.910055E-013
 0.911804E-013
 0.907978E-013
 0.915515E-013
 0.916628E-013
 0.907763E-013
 0.912509E-013
 0.910537E-013
 0.911266E-013
 0.911088E-013
 0.911170E-013
 0.911188E-013
 0.911219E-013
 0.911247E-013
 0.911276E-013
 0.911305E-013
 0.911333E-013
 0.911362E-013
 0.911390E-013
 0.911418E-013
 0.911446E-013
 0.911474E-013
 0.911502E-013
 0.911530E-013
 0.911557E-013
 0.911585E-013
 0.911612E-013
 0.911639E-013
 0.911666E-013
 0.911692E-013
 0.911718E-013
 0.911744E-013
 0.911770E-013
 0.911796E-013
 0.911821E-013
 0.911845E-013
 0.911870E-013
 0.911894E-013
 0.911917E-013
 0.911941E-013
 0.911963E-013
 0.911986E-013
 0.912007E-013
 0.912028E-013
 0.912049E-013
 0.912069E-013
 0.912089E-013
 0.912107E-013
 0.912125E-013
 0.912143E-013
 0.912159E-013
 0.912175E-013
 0.912190E-013
 0.912205E-013
 0.912218E-013
 0.912231E-013
 0.912243E-013
 0.912254E-013
 0.912263E-013
 0.912272E-013
 0.912281E-013
 0.912288E-013
 0.912294E-013
 0.912299E-013
 0.912303E-013
 0.912306E-013
 0.912308E-013
 0.912309E-013
 0.912309E-013
 0.912308E-013
 0.912306E-013
 0.912303E-013
 0.912299E-013
 0.912294E-013
 0.912288E-013
 0.912281E-013
 0.912272E-013
 0.912263E-013
 0.912254E-013
 0.912243E-013
 0.912231E-013
 0.912218E-013
 0.912205E-013
 0.912190E-013
 0.912175E-013
 0.912159E-013
 0.912143E-013
 0.912125E-013
 0.912107E-013
 0.912089E-013
 0.912069E-013
 0.912049E-013
 0.912028E-013
 0.912007E-013
 0.911986E-013
 0.911963E-013
 0.911941E-013
 0.911917E-013
 0.911894E-013
 0.911870E-013
 0.911845E-013
 0.911821E-013
 0.911796E-013
 0.911770E-013
 0.911744E-013
 0.911718E-013
 0.911692E-013
 0.911666E-013
 0.911639E-013
 0.911612E-013
 0.911585E-013
 0.911557E-013
 0.911530E-013
 0.911502E-013
 0.911474E-013
 0.911446E-013
 0.911418E-013
 0.911390E-013
 0.911362E-013
 0.911333E-013
 0.911305E-013
 0.911276E-013
 0.911247E-013
 0.911219E-013
 0.911187E-013
 0.911170E-013
 0.911088E-013
 0.911266E-013
 0.910537E-013
 0.912509E-013
 0.907763E-013
 0.916628E-013
 0.917425E-013
 0.907138E-013
 0.912626E-013
 0.910274E-013
 0.911088E-013
 0.910837E-013
 0.910892E-013
 0.910870E-013
 0.910865E-013
 0.910857E-013
 0.910849E-013
 0.910842E-013
 0.910834E-013
 0.910827E-013
 0.910819E-013
 0.910812E-013
 0.910804E-013
 0.910797E-013
 0.910789E-013
 0.910782E-013
 0.910775E-013
 0.910768E-013
 0.910760E-013
 0.910753E-013
 0.910746E-013
 0.910739E-013
 0.910732E-013
 0.910725E-013
 0.910719E-013
 0.910712E-013
 0.910705E-013
 0.910699E-013
 0.910692E-013
 0.910686E-013
 0.910680E-013
 0.910674E-013
 0.910668E-013
 0.910662E-013
 0.910656E-013
 0.910650E-013
 0.910645E-013
 0.910640E-013
 0.910635E-013
 0.910630E-013
 0.910625E-013
 0.910620E-013
 0.910616E-013
 0.910612E-013
 0.910608E-013
 0.910604E-013
 0.910601E-013
 0.910597E-013
 0.910594E-013
 0.910591E-013
 0.910589E-013
 0.910586E-013
 0.910584E-013
 0.910582E-013
 0.910581E-013
 0.910580E-013
 0.910578E-013
 0.910578E-013
 0.910577E-013
 0.910577E-013
 0.910577E-013
 0.910577E-013
 0.910578E-013
 0.910578E-013
 0.910580E-013
 0.910581E-013
 0.910582E-013
 0.910584E-013
 0.910586E-013
 0.910589E-013
 0.910591E-013
 0.910594E-013
 0.910597E-013
 0.910601E-013
 0.910604E-013
 0.910608E-013
 0.910612E-013
 0.910616E-013
 0.910620E-013
 0.910625E-013
 0.910630E-013
 0.910635E-013
 0.910640E-013
 0.910645E-013
 0.910650E-013
 0.910656E-013
 0.910662E-013
 0.910668E-013
 0.910674E-013
 0.910680E-013
 0.910686E-013
 0.910692E-013
 0.910699E-013
 0.910705E-013
 0.910712E-013
 0.910719E-013
 0.910725E-013
 0.910732E-013
 0.910739E-013
 0.910746E-013
 0.910753E-013
 0.910760E-013
 0.910768E-013
 0.910775E-013
 0.910782E-013
 0.910789E-013
 0.910797E-013
 0.910804E-013
 0.910812E-013
 0.910819E-013
 0.910827E-013
 0.910834E-013
 0.910842E-013
 0.910849E-013
 0.910857E-013
 0.910865E-013
 0.910870E-013
 0.910892E-013
 0.910837E-013
 0.911088E-013
 0.910274E-013
 0.912626E-013
 0.907138E-013
 0.917425E-013
 0.918303E-013
 0.906631E-013
 0.912909E-013
 0.910223E-013
 0.911170E-013
 0.910892E-013
 0.910965E-013
 0.910951E-013
 0.910956E-013
 0.910957E-013
 0.910959E-013
 0.910961E-013
 0.910962E-013
 0.910964E-013
 0.910966E-013
 0.910967E-013
 0.910969E-013
 0.910971E-013
 0.910973E-013
 0.910974E-013
 0.910976E-013
 0.910978E-013
 0.910979E-013
 0.910981E-013
 0.910983E-013
 0.910984E-013
 0.910986E-013
 0.910987E-013
 0.910989E-013
 0.910991E-013
 0.910992E-013
 0.910994E-013
 0.910995E-013
 0.910997E-013
 0.910998E-013
 0.911000E-013
 0.911001E-013
 0.911002E-013
 0.911004E-013
 0.911005E-013
 0.911006E-013
 0.911008E-013
 0.911009E-013
 0.911010E-013
 0.911011E-013
 0.911012E-013
 0.911013E-013
 0.911014E-013
 0.911015E-013
 0.911016E-013
 0.911017E-013
 0.911018E-013
 0.911019E-013
 0.911019E-013
 0.911020E-013
 0.911021E-013
 0.911021E-013
 0.911022E-013
 0.911022E-013
 0.911022E-013
 0.911023E-013
 0.911023E-013
 0.911023E-013
 0.911023E-013
 0.911023E-013
 0.911023E-013
 0.911023E-013
 0.911023E-013
 0.911022E-013
 0.911022E-013
 0.911022E-013
 0.911021E-013
 0.911021E-013
 0.911020E-013
 0.911019E-013
 0.911019E-013
 0.911018E-013
 0.911017E-013
 0.911016E-013
 0.911015E-013
 0.911014E-013
 0.911013E-013
 0.911012E-013
 0.911011E-013
 0.911010E-013
 0.911009E-013
 0.911008E-013
 0.911006E-013
 0.911005E-013
 0.911004E-013
 0.911002E-013
 0.911001E-013
 0.911000E-013
 0.910998E-013
 0.910997E-013
 0.910995E-013
 0.910994E-013
 0.910992E-013
 0.910991E-013
 0.910989E-013
 0.910987E-013
 0.910986E-013
 0.910984E-013
 0.910983E-013
 0.910981E-013
 0.910979E-013
 0.910978E-013
 0.910976E-013
 0.910974E-013
 0.910973E-013
 0.910971E-013
 0.910969E-013
 0.910967E-013
 0.910966E-013
 0.910964E-013
 0.910962E-013
 0.910961E-013
 0.910959E-013
 0.910957E-013
 0.910956E-013
 0.910951E-013
 0.910965E-013
 0.910892E-013
 0.911170E-013
 0.910223E-013
 0.912909E-013
 0.906631E-013
 0.918303E-013
 0.919159E-013
 0.906096E-013
 0.913150E-013
 0.910120E-013
 0.911188E-013
 0.910870E-013
 0.910951E-013
 0.910932E-013
 0.910935E-013
 0.910934E-013
 0.910934E-013
 0.910934E-013
 0.910934E-013
 0.910933E-013
 0.910933E-013
 0.910932E-013
 0.910932E-013
 0.910932E-013
 0.910931E-013
 0.910931E-013
 0.910931E-013
 0.910930E-013
 0.910930E-013
 0.910930E-013
 0.910929E-013
 0.910929E-013
 0.910929E-013
 0.910929E-013
 0.910928E-013
 0.910928E-013
 0.910928E-013
 0.910927E-013
 0.910927E-013
 0.910927E-013
 0.910927E-013
 0.910926E-013
 0.910926E-013
 0.910926E-013
 0.910926E-013
 0.910925E-013
 0.910925E-013
 0.910925E-013
 0.910925E-013
 0.910925E-013
 0.910925E-013
 0.910924E-013
 0.910924E-013
 0.910924E-013
 0.910924E-013
 0.910924E-013
 0.910924E-013
 0.910924E-013
 0.910923E-013
 0.910923E-013
 0.910923E-013
 0.910923E-013
 0.910923E-013
 0.910923E-013
 0.910923E-013
 0.910923E-013
 0.910923E-013
 0.910923E-013
 0.910923E-013
 0.910923E-013
 0.910923E-013
 0.910923E-013
 0.910923E-013
 0.910923E-013
 0.910923E-013
 0.910923E-013
 0.910923E-013
 0.910923E-013
 0.910923E-013
 0.910923E-013
 0.910923E-013
 0.910923E-013
 0.910924E-013
 0.910924E-013
 0.910924E-013
 0.910924E-013
 0.910924E-013
 0.910924E-013
 0.910924E-013
 0.910925E-013
 0.910925E-013
 0.910925E-013
 0.910925E-013
 0.910925E-013
 0.910925E-013
 0.910926E-013
 0.910926E-013
 0.910926E-013
 0.910926E-013
 0.910927E-013
 0.910927E-013
 0.910927E-013
 0.910927E-013
 0.910928E-013
 0.910928E-013
 0.910928E-013
 0.910929E-013
 0.910929E-013
 0.910929E-013
 0.910929E-013
 0.910930E-013
 0.910930E-013
 0.910930E-013
 0.910931E-013
 0.910931E-013
 0.910931E-013
 0.910932E-013
 0.910932E-013
 0.910932E-013
 0.910933E-013
 0.910933E-013
 0.910934E-013
 0.910934E-013
 0.910934E-013
 0.910934E-013
 0.910935E-013
 0.910932E-013
 0.910951E-013
 0.910870E-013
 0.911187E-013
 0.910120E-013
 0.913150E-013
 0.906096E-013
 0.919159E-013
 0.920017E-013
 0.905570E-013
 0.913399E-013
 0.910029E-013
 0.911219E-013
 0.910865E-013
 0.910956E-013
 0.910935E-013
 0.910940E-013
 0.910939E-013
 0.910939E-013
 0.910939E-013
 0.910939E-013
 0.910939E-013
 0.910939E-013
 0.910939E-013
 0.910940E-013
 0.910940E-013
 0.910940E-013
 0.910940E-013
 0.910940E-013
 0.910940E-013
 0.910940E-013
 0.910940E-013
 0.910940E-013
 0.910940E-013
 0.910940E-013
 0.910940E-013
 0.910940E-013
 0.910941E-013
 0.910941E-013
 0.910941E-013
 0.910941E-013
 0.910941E-013
 0.910941E-013
 0.910941E-013
 0.910941E-013
 0.910941E-013
 0.910941E-013
 0.910942E-013
 0.910942E-013
 0.910942E-013
 0.910942E-013
 0.910942E-013
 0.910942E-013
 0.910942E-013
 0.910942E-013
 0.910942E-013
 0.910942E-013
 0.910943E-013
 0.910943E-013
 0.910943E-013
 0.910943E-013
 0.910943E-013
 0.910943E-013
 0.910943E-013
 0.910943E-013
 0.910943E-013
 0.910943E-013
 0.910943E-013
 0.910943E-013
 0.910943E-013
 0.910943E-013
 0.910943E-013
 0.910943E-013
 0.910943E-013
 0.910943E-013
 0.910943E-013
 0.910943E-013
 0.910943E-013
 0.910943E-013
 0.910943E-013
 0.910943E-013
 0.910943E-013
 0.910943E-013
 0.910943E-013
 0.910943E-013
 0.910943E-013
 0.910943E-013
 0.910942E-013
 0.910942E-013
 0.910942E-013
 0.910942E-013
 0.910942E-013
 0.910942E-013
 0.910942E-013
 0.910942E-013
 0.910942E-013
 0.910942E-013
 0.910941E-013
 0.910941E-013
 0.910941E-013
 0.910941E-013
 0.910941E-013
 0.910941E-013
 0.910941E-013
 0.910941E-013
 0.910941E-013
 0.910941E-013
 0.910940E-013
 0.910940E-013
 0.910940E-013
 0.910940E-013
 0.910940E-013
 0.910940E-013
 0.910940E-013
 0.910940E-013
 0.910940E-013
 0.910940E-013
 0.910940E-013
 0.910940E-013
 0.910940E-013
 0.910939E-013
 0.910939E-013
 0.910939E-013
 0.910939E-013
 0.910939E-013
 0.910939E-013
 0.910939E-013
 0.910940E-013
 0.910935E-013
 0.910956E-013
 0.910865E-013
 0.911219E-013
 0.910029E-013
 0.913399E-013
 0.905570E-013
 0.920017E-013
 0.920872E-013
 0.905043E-013
 0.913646E-013
 0.909936E-013
 0.911247E-013
 0.910857E-013
 0.910957E-013
 0.910934E-013
 0.910939E-013
 0.910938E-013
 0.910938E-013
 0.910938E-013
 0.910938E-013
 0.910938E-013
 0.910938E-013
 0.910938E-013
 0.910938E-013
 0.910938E-013
 0.910938E-013
 0.910938E-013
 0.910938E-013
 0.910938E-013
 0.910938E-013
 0.910938E-013
 0.910938E-013
 0.910938E-013
 0.910938E-013
 0.910938E-013
 0.910938E-013
 0.910938E-013
 0.910938E-013
 0.910938E-013
 0.910938E-013
 0.910938E-013
 0.910939E-013
 0.910939E-013
 0.910939E-013
 0.910939E-013
 0.910939E-013
 0.910939E-013
 0.910939E-013
 0.910939E-013
 0.910939E-013
 0.910939E-013
 0.910939E-013
 0.910939E-013
 0.910939E-013
 0.910939E-013
 0.910939E-013
 0.910939E-013
 0.910939E-013
 0.910940E-013
 0.910940E-013
 0.910940E-013
 0.910940E-013
 0.910940E-013
 0.910940E-013
 0.910940E-013
 0.910940E-013
 0.910940E-013
 0.910940E-013
 0.910940E-013
 0.910940E-013
 0.910940E-013
 0.910940E-013
 0.910940E-013
 0.910940E-013
 0.910940E-013
 0.910940E-013
 0.910940E-013
 0.910940E-013
 0.910940E-013
 0.910940E-013
 0.910940E-013
 0.910940E-013
 0.910940E-013
 0.910940E-013
 0.910940E-013
 0.910939E-013
 0.910939E-013
 0.910939E-013
 0.910939E-013
 0.910939E-013
 0.910939E-013
 0.910939E-013
 0.910939E-013
 0.910939E-013
 0.910939E-013
 0.910939E-013
 0.910939E-013
 0.910939E-013
 0.910939E-013
 0.910939E-013
 0.910939E-013
 0.910938E-013
 0.910938E-013
 0.910938E-013
 0.910938E-013
 0.910938E-013
 0.910938E-013
 0.910938E-013
 0.910938E-013
 0.910938E-013
 0.910938E-013
 0.910938E-013
 0.910938E-013
 0.910938E-013
 0.910938E-013
 0.910938E-013
 0.910938E-013
 0.910938E-013
 0.910938E-013
 0.910938E-013
 0.910938E-013
 0.910938E-013
 0.910938E-013
 0.910938E-013
 0.910938E-013
 0.910938E-013
 0.910939E-013
 0.910934E-013
 0.910957E-013
 0.910857E-013
 0.911247E-013
 0.909936E-013
 0.913646E-013
 0.905043E-013
 0.920872E-013
 0.921724E-013
 0.904518E-013
 0.913892E-013
 0.909844E-013
 0.911276E-013
 0.910849E-013
 0.910959E-013
 0.910934E-013
 0.910939E-013
 0.910938E-013
 0.910938E-013
 0.910938E-013
 0.910938E-013
 0.910938E-013
 0.910938E-013
 0.910938E-013
 0.910938E-013
 0.910938E-013
 0.910938E-013
 0.910938E-013
 0.910938E-013
 0.910939E-013
 0.910939E-013
 0.910939E-013
 0.910939E-013
 0.910939E-013
 0.910939E-013
 0.910939E-013
 0.910939E-013
 0.910939E-013
 0.910939E-013
 0.910939E-013
 0.910939E-013
 0.910939E-013
 0.910939E-013
 0.910939E-013
 0.910939E-013
 0.910939E-013
 0.910939E-013
 0.910939E-013
 0.910939E-013
 0.910940E-013
 0.910940E-013
 0.910940E-013
 0.910940E-013
 0.910940E-013
 0.910940E-013
 0.910940E-013
 0.910940E-013