# vtk DataFile Version 3.0
Solution data
ASCII
DATASET STRUCTURED_GRID
DIMENSIONS 128 128 1
POINTS 16384  double
      0.000004      0.000004      0.000000
      0.000012      0.000004      0.000000
      0.000020      0.000004      0.000000
      0.000027      0.000004      0.000000
      0.000035      0.000004      0.000000
      0.000043      0.000004      0.000000
      0.000051      0.000004      0.000000
      0.000059      0.000004      0.000000
      0.000066      0.000004      0.000000
      0.000074      0.000004      0.000000
      0.000082      0.000004      0.000000
      0.000090      0.000004      0.000000
      0.000098      0.000004      0.000000
      0.000105      0.000004      0.000000
      0.000113      0.000004      0.000000
      0.000121      0.000004      0.000000
      0.000129      0.000004      0.000000
      0.000137      0.000004      0.000000
      0.000145      0.000004      0.000000
      0.000152      0.000004      0.000000
      0.000160      0.000004      0.000000
      0.000168      0.000004      0.000000
      0.000176      0.000004      0.000000
      0.000184      0.000004      0.000000
      0.000191      0.000004      0.000000
      0.000199      0.000004      0.000000
      0.000207      0.000004      0.000000
      0.000215      0.000004      0.000000
      0.000223      0.000004      0.000000
      0.000230      0.000004      0.000000
      0.000238      0.000004      0.000000
      0.000246      0.000004      0.000000
      0.000254      0.000004      0.000000
      0.000262      0.000004      0.000000
      0.000270      0.000004      0.000000
      0.000277      0.000004      0.000000
      0.000285      0.000004      0.000000
      0.000293      0.000004      0.000000
      0.000301      0.000004      0.000000
      0.000309      0.000004      0.000000
      0.000316      0.000004      0.000000
      0.000324      0.000004      0.000000
      0.000332      0.000004      0.000000
      0.000340      0.000004      0.000000
      0.000348      0.000004      0.000000
      0.000355      0.000004      0.000000
      0.000363      0.000004      0.000000
      0.000371      0.000004      0.000000
      0.000379      0.000004      0.000000
      0.000387      0.000004      0.000000
      0.000395      0.000004      0.000000
      0.000402      0.000004      0.000000
      0.000410      0.000004      0.000000
      0.000418      0.000004      0.000000
      0.000426      0.000004      0.000000
      0.000434      0.000004      0.000000
      0.000441      0.000004      0.000000
      0.000449      0.000004      0.000000
      0.000457      0.000004      0.000000
      0.000465      0.000004      0.000000
      0.000473      0.000004      0.000000
      0.000480      0.000004      0.000000
      0.000488      0.000004      0.000000
      0.000496      0.000004      0.000000
      0.000504      0.000004      0.000000
      0.000512      0.000004      0.000000
      0.000520      0.000004      0.000000
      0.000527      0.000004      0.000000
      0.000535      0.000004      0.000000
      0.000543      0.000004      0.000000
      0.000551      0.000004      0.000000
      0.000559      0.000004      0.000000
      0.000566      0.000004      0.000000
      0.000574      0.000004      0.000000
      0.000582      0.000004      0.000000
      0.000590      0.000004      0.000000
      0.000598      0.000004      0.000000
      0.000605      0.000004      0.000000
      0.000613      0.000004      0.000000
      0.000621      0.000004      0.000000
      0.000629      0.000004      0.000000
      0.000637      0.000004      0.000000
      0.000645      0.000004      0.000000
      0.000652      0.000004      0.000000
      0.000660      0.000004      0.000000
      0.000668      0.000004      0.000000
      0.000676      0.000004      0.000000
      0.000684      0.000004      0.000000
      0.000691      0.000004      0.000000
      0.000699      0.000004      0.000000
      0.000707      0.000004      0.000000
      0.000715      0.000004      0.000000
      0.000723      0.000004      0.000000
      0.000730      0.000004      0.000000
      0.000738      0.000004      0.000000
      0.000746      0.000004      0.000000
      0.000754      0.000004      0.000000
      0.000762      0.000004      0.000000
      0.000770      0.000004      0.000000
      0.000777      0.000004      0.000000
      0.000785      0.000004      0.000000
      0.000793      0.000004      0.000000
      0.000801      0.000004      0.000000
      0.000809      0.000004      0.000000
      0.000816      0.000004      0.000000
      0.000824      0.000004      0.000000
      0.000832      0.000004      0.000000
      0.000840      0.000004      0.000000
      0.000848      0.000004      0.000000
      0.000855      0.000004      0.000000
      0.000863      0.000004      0.000000
      0.000871      0.000004      0.000000
      0.000879      0.000004      0.000000
      0.000887      0.000004      0.000000
      0.000895      0.000004      0.000000
      0.000902      0.000004      0.000000
      0.000910      0.000004      0.000000
      0.000918      0.000004      0.000000
      0.000926      0.000004      0.000000
      0.000934      0.000004      0.000000
      0.000941      0.000004      0.000000
      0.000949      0.000004      0.000000
      0.000957      0.000004      0.000000
      0.000965      0.000004      0.000000
      0.000973      0.000004      0.000000
      0.000980      0.000004      0.000000
      0.000988      0.000004      0.000000
      0.000996      0.000004      0.000000
      0.000004      0.000012      0.000000
      0.000012      0.000012      0.000000
      0.000020      0.000012      0.000000
      0.000027      0.000012      0.000000
      0.000035      0.000012      0.000000
      0.000043      0.000012      0.000000
      0.000051      0.000012      0.000000
      0.000059      0.000012      0.000000
      0.000066      0.000012      0.000000
      0.000074      0.000012      0.000000
      0.000082      0.000012      0.000000
      0.000090      0.000012      0.000000
      0.000098      0.000012      0.000000
      0.000105      0.000012      0.000000
      0.000113      0.000012      0.000000
      0.000121      0.000012      0.000000
      0.000129      0.000012      0.000000
      0.000137      0.000012      0.000000
      0.000145      0.000012      0.000000
      0.000152      0.000012      0.000000
      0.000160      0.000012      0.000000
      0.000168      0.000012      0.000000
      0.000176      0.000012      0.000000
      0.000184      0.000012      0.000000
      0.000191      0.000012      0.000000
      0.000199      0.000012      0.000000
      0.000207      0.000012      0.000000
      0.000215      0.000012      0.000000
      0.000223      0.000012      0.000000
      0.000230      0.000012      0.000000
      0.000238      0.000012      0.000000
      0.000246      0.000012      0.000000
      0.000254      0.000012      0.000000
      0.000262      0.000012      0.000000
      0.000270      0.000012      0.000000
      0.000277      0.000012      0.000000
      0.000285      0.000012      0.000000
      0.000293      0.000012      0.000000
      0.000301      0.000012      0.000000
      0.000309      0.000012      0.000000
      0.000316      0.000012      0.000000
      0.000324      0.000012      0.000000
      0.000332      0.000012      0.000000
      0.000340      0.000012      0.000000
      0.000348      0.000012      0.000000
      0.000355      0.000012      0.000000
      0.000363      0.000012      0.000000
      0.000371      0.000012      0.000000
      0.000379      0.000012      0.000000
      0.000387      0.000012      0.000000
      0.000395      0.000012      0.000000
      0.000402      0.000012      0.000000
      0.000410      0.000012      0.000000
      0.000418      0.000012      0.000000
      0.000426      0.000012      0.000000
      0.000434      0.000012      0.000000
      0.000441      0.000012      0.000000
      0.000449      0.000012      0.000000
      0.000457      0.000012      0.000000
      0.000465      0.000012      0.000000
      0.000473      0.000012      0.000000
      0.000480      0.000012      0.000000
      0.000488      0.000012      0.000000
      0.000496      0.000012      0.000000
      0.000504      0.000012      0.000000
      0.000512      0.000012      0.000000
      0.000520      0.000012      0.000000
      0.000527      0.000012      0.000000
      0.000535      0.000012      0.000000
      0.000543      0.000012      0.000000
      0.000551      0.000012      0.000000
      0.000559      0.000012      0.000000
      0.000566      0.000012      0.000000
      0.000574      0.000012      0.000000
      0.000582      0.000012      0.000000
      0.000590      0.000012      0.000000
      0.000598      0.000012      0.000000
      0.000605      0.000012      0.000000
      0.000613      0.000012      0.000000
      0.000621      0.000012      0.000000
      0.000629      0.000012      0.000000
      0.000637      0.000012      0.000000
      0.000645      0.000012      0.000000
      0.000652      0.000012      0.000000
      0.000660      0.000012      0.000000
      0.000668      0.000012      0.000000
      0.000676      0.000012      0.000000
      0.000684      0.000012      0.000000
      0.000691      0.000012      0.000000
      0.000699      0.000012      0.000000
      0.000707      0.000012      0.000000
      0.000715      0.000012      0.000000
      0.000723      0.000012      0.000000
      0.000730      0.000012      0.000000
      0.000738      0.000012      0.000000
      0.000746      0.000012      0.000000
      0.000754      0.000012      0.000000
      0.000762      0.000012      0.000000
      0.000770      0.000012      0.000000
      0.000777      0.000012      0.000000
      0.000785      0.000012      0.000000
[...]
POINT_DATA 16384
SCALARS rhoe double
LOOKUP_TABLE default
 0.914905E-013
 0.913167E-013
 0.914946E-013
 0.915827E-013
 0.916885E-013
 0.917912E-013
 0.918940E-013
 0.919966E-013
 0.920989E-013
 0.922010E-013
 0.923028E-013
 0.924043E-013
 0.925055E-013
 0.926064E-013
 0.927070E-013
 0.928073E-013
 0.929071E-013
 0.930066E-013
 0.931056E-013
 0.932042E-013
 0.933022E-013
 0.933997E-013
 0.934966E-013
 0.935929E-013
 0.936885E-013
 0.937833E-013
 0.938773E-013
 0.939705E-013
 0.940627E-013
 0.941539E-013
 0.942440E-013
 0.943330E-013
 0.944207E-013
 0.945071E-013
 0.945921E-013
 0.946756E-013
 0.947575E-013
 0.948376E-013
 0.949160E-013
 0.949925E-013
 0.950670E-013
 0.951394E-013
 0.952097E-013
 0.952776E-013
 0.953431E-013
 0.954061E-013
 0.954664E-013
 0.955241E-013
 0.955790E-013
 0.956309E-013
 0.956799E-013
 0.957257E-013
 0.957684E-013
 0.958079E-013
 0.958440E-013
 0.958767E-013
 0.959059E-013
 0.959317E-013
 0.959538E-013
 0.959723E-013
 0.959872E-013
 0.959984E-013
 0.960058E-013
 0.960096E-013
 0.960096E-013
 0.960058E-013
 0.959984E-013
 0.959872E-013
 0.959723E-013
 0.959538E-013
 0.959316E-013
 0.959059E-013
 0.958767E-013
 0.958439E-013
 0.958078E-013
 0.957684E-013
 0.957257E-013
 0.956798E-013
 0.956309E-013
 0.955789E-013
 0.955240E-013
 0.954664E-013
 0.954060E-013
 0.953430E-013
 0.952775E-013
 0.952096E-013
 0.951394E-013
 0.950670E-013
 0.949924E-013
 0.949159E-013
 0.948376E-013
 0.947574E-013
 0.946755E-013
 0.945920E-013
 0.945070E-013
 0.944206E-013
 0.943329E-013
 0.942439E-013
 0.941538E-013
 0.940626E-013
 0.939704E-013
 0.938772E-013
 0.937832E-013
 0.936884E-013
 0.935928E-013
 0.934965E-013
 0.933996E-013
 0.933021E-013
 0.932041E-013
 0.931055E-013
 0.930065E-013
 0.929070E-013
 0.928072E-013
 0.927069E-013
 0.926063E-013
 0.925054E-013
 0.924042E-013
 0.923027E-013
 0.922009E-013
 0.920988E-013
 0.919965E-013
 0.918940E-013
 0.917911E-013
 0.916885E-013
 0.915827E-013
 0.914946E-013
 0.913167E-013
 0.914904E-013
 0.913167E-013
 0.909139E-013
 0.909879E-013
 0.909276E-013
 0.908959E-013
 0.908594E-013
 0.908238E-013
 0.907882E-013
 0.907527E-013
 0.907172E-013
 0.906819E-013
 0.906467E-013
 0.906116E-013
 0.905767E-013
 0.905418E-013
 0.905071E-013
 0.904726E-013
 0.904382E-013
 0.904039E-013
 0.903699E-013
 0.903360E-013
 0.903023E-013
 0.902689E-013
 0.902356E-013
 0.902027E-013
 0.901700E-013
 0.901375E-013
 0.901054E-013
 0.900737E-013
 0.900422E-013
 0.900112E-013
 0.899806E-013
 0.899504E-013
 0.899207E-013
 0.898915E-013
 0.898628E-013
 0.898346E-013
 0.898071E-013
 0.897802E-013
 0.897539E-013
 0.897283E-013
 0.897035E-013
 0.896794E-013
 0.896561E-013
 0.896337E-013
 0.896121E-013
 0.895914E-013
 0.895716E-013
 0.895529E-013
 0.895351E-013
 0.895183E-013
 0.895026E-013
 0.894880E-013
 0.894745E-013
 0.894621E-013
 0.894510E-013
 0.894410E-013
 0.894322E-013
 0.894246E-013
 0.894183E-013
 0.894132E-013
 0.894093E-013
 0.894068E-013
 0.894055E-013
 0.894055E-013
 0.894068E-013
 0.894094E-013
 0.894132E-013
 0.894183E-013
 0.894246E-013
 0.894322E-013
 0.894410E-013
 0.894510E-013
 0.894622E-013
 0.894745E-013
 0.894880E-013
 0.895026E-013
 0.895183E-013
 0.895351E-013
 0.895529E-013
 0.895717E-013
 0.895914E-013
 0.896121E-013
 0.896337E-013
 0.896562E-013
 0.896795E-013
 0.897036E-013
 0.897284E-013
 0.897540E-013
 0.897802E-013
 0.898072E-013
 0.898347E-013
 0.898628E-013
 0.898915E-013
 0.899208E-013
 0.899505E-013
 0.899807E-013
 0.900113E-013
 0.900423E-013
 0.900737E-013
 0.901055E-013
 0.901376E-013
 0.901700E-013
 0.902027E-013
 0.902357E-013
 0.902689E-013
 0.903024E-013
 0.903360E-013
 0.903699E-013
 0.904040E-013
 0.904382E-013
 0.904726E-013
 0.905072E-013
 0.905419E-013
 0.905767E-013
 0.906117E-013
 0.906468E-013
 0.906820E-013
 0.907173E-013
 0.907527E-013
 0.907882E-013
 0.908238E-013
 0.908595E-013
 0.908959E-013
 0.909276E-013
 0.909879E-013
 0.909139E-013
 0.913166E-013
 0.914946E-013
 0.909879E-013
 0.911528E-013
 0.911267E-013
 0.911414E-013
 0.911492E-013
 0.911579E-013
 0.911665E-013
 0.911750E-013
 0.911836E-013
 0.911921E-013
 0.912005E-013
 0.912090E-013
 0.912174E-013
 0.912258E-013
 0.912341E-013
 0.912424E-013
 0.912507E-013
 0.912589E-013
 0.912671E-013
 0.912753E-013
 0.912834E-013
 0.912914E-013
 0.912994E-013
 0.913073E-013
 0.913152E-013
 0.913230E-013
 0.913307E-013
 0.913383E-013
 0.913459E-013
 0.913533E-013
 0.913607E-013
 0.913680E-013
 0.913751E-013
 0.913821E-013
 0.913890E-013
 0.913958E-013
 0.914024E-013
 0.914089E-013
 0.914152E-013
 0.914213E-013
 0.914273E-013
 0.914331E-013
 0.914387E-013
 0.914440E-013
 0.914492E-013
 0.914542E-013
 0.914589E-013
 0.914635E-013
 0.914677E-013
 0.914718E-013
 0.914755E-013
 0.914790E-013
 0.914823E-013
 0.914853E-013
 0.914880E-013
 0.914904E-013
 0.914925E-013
 0.914943E-013
 0.914958E-013
 0.914970E-013
 0.914980E-013
 0.914986E-013
 0.914989E-013
 0.914989E-013
 0.914986E-013
 0.914979E-013
 0.914970E-013
 0.914958E-013
 0.914943E-013
 0.914925E-013
 0.914904E-013
 0.914879E-013
 0.914853E-013
 0.914823E-013
 0.914790E-013
 0.914755E-013
 0.914718E-013
 0.914677E-013
 0.914635E-013
 0.914589E-013
 0.914542E-013
 0.914492E-013
 0.914440E-013
 0.914386E-013
 0.914330E-013
 0.914273E-013
 0.914213E-013
 0.914151E-013
 0.914088E-013
 0.914024E-013
 0.913958E-013
 0.913890E-013
 0.913821E-013
 0.913751E-013
 0.913679E-013
 0.913607E-013
 0.913533E-013
 0.913459E-013
 0.913383E-013
 0.913307E-013
 0.913230E-013
 0.913152E-013
 0.913073E-013
 0.912994E-013
 0.912914E-013
 0.912834E-013
 0.912753E-013
 0.912671E-013
 0.912589E-013
 0.912507E-013
 0.912424E-013
 0.912341E-013
 0.912258E-013
 0.912174E-013
 0.912090E-013
 0.912005E-013
 0.911920E-013
 0.911835E-013
 0.911750E-013
 0.911665E-013
 0.911579E-013
 0.911492E-013
 0.911414E-013
 0.911267E-013
 0.911528E-013
 0.909879E-013
 0.914946E-013
 0.915827E-013
 0.909276E-013
 0.911267E-013
 0.910800E-013
 0.910864E-013
 0.910836E-013
 0.910822E-013
 0.910806E-013
 0.910790E-013
 0.910775E-013
 0.910759E-013
 0.910744E-013
 0.910728E-013
 0.910713E-013
 0.910697E-013
 0.910682E-013
 0.910667E-013
 0.910652E-013
 0.910637E-013
 0.910622E-013
 0.910607E-013
 0.910592E-013
 0.910577E-013
 0.910563E-013
 0.910548E-013
 0.910534E-013
 0.910520E-013
 0.910506E-013
 0.910492E-013
 0.910478E-013
 0.910465E-013
 0.910451E-013
 0.910438E-013
 0.910425E-013
 0.910413E-013
 0.910400E-013
 0.910388E-013
 0.910376E-013
 0.910364E-013
 0.910353E-013
 0.910342E-013
 0.910331E-013
 0.910321E-013
 0.910311E-013
 0.910301E-013
 0.910292E-013
 0.910283E-013
 0.910274E-013
 0.910266E-013
 0.910259E-013
 0.910251E-013
 0.910245E-013
 0.910238E-013
 0.910233E-013
 0.910227E-013
 0.910223E-013
 0.910218E-013
 0.910215E-013
 0.910211E-013
 0.910209E-013
 0.910206E-013
 0.910205E-013
 0.910204E-013
 0.910203E-013
 0.910203E-013
 0.910204E-013
 0.910205E-013
 0.910206E-013
 0.910209E-013
 0.910211E-013
 0.910215E-013
 0.910218E-013
 0.910223E-013
 0.910227E-013
 0.910233E-013
 0.910238E-013
 0.910245E-013
 0.910251E-013
 0.910259E-013
 0.910266E-013
 0.910274E-013
 0.910283E-013
 0.910292E-013
 0.910301E-013
 0.910311E-013
 0.910321E-013
 0.910331E-013
 0.910342E-013
 0.910353E-013
 0.910364E-013
 0.910376E-013
 0.910388E-013
 0.910400E-013
 0.910413E-013
 0.910425E-013
 0.910438E-013
 0.910451E-013
 0.910465E-013
 0.910478E-013
 0.910492E-013
 0.910506E-013
 0.910520E-013
 0.910534E-013
 0.910548E-013
 0.910563E-013
 0.910577E-013
 0.910592E-013
 0.910607E-013
 0.910622E-013
 0.910637E-013
 0.910652E-013
 0.910667E-013
 0.910682E-013
 0.910697E-013
 0.910713E-013
 0.910728E-013
 0.910744E-013
 0.910759E-013
 0.910775E-013
 0.910790E-013
 0.910806E-013
 0.910822E-013
 0.910836E-013
 0.910864E-013
 0.910801E-013
 0.911267E-013
 0.909276E-013
 0.915827E-013
 0.916885E-013
 0.908959E-013
 0.911414E-013
 0.910864E-013
 0.910963E-013
 0.910952E-013
 0.910956E-013
 0.910958E-013
 0.910960E-013
 0.910962E-013
 0.910965E-013
 0.910967E-013
 0.910969E-013
 0.910972E-013
 0.910974E-013
 0.910976E-013
 0.910978E-013
 0.910981E-013
 0.910983E-013
 0.910985E-013
 0.910987E-013
 0.910990E-013
 0.910992E-013
 0.910994E-013
 0.910996E-013
 0.910998E-013
 0.911001E-013
 0.911003E-013
 0.911005E-013
 0.911007E-013
 0.911009E-013
 0.911011E-013
 0.911013E-013
 0.911015E-013
 0.911017E-013
 0.911019E-013
 0.911021E-013
 0.911023E-013
 0.911025E-013
 0.911027E-013
 0.911028E-013
 0.911030E-013
 0.911032E-013
 0.911034E-013
 0.911035E-013
 0.911037E-013
 0.911038E-013
 0.911040E-013
 0.911041E-013
 0.911042E-013
 0.911044E-013
 0.911045E-013
 0.911046E-013
 0.911047E-013
 0.911048E-013
 0.911049E-013
 0.911049E-013
 0.911050E-013
 0.911051E-013
 0.911051E-013
 0.911051E-013
 0.911052E-013
 0.911052E-013
 0.911052E-013
 0.911052E-013
 0.911052E-013
 0.911052E-013
 0.911051E-013
 0.911051E-013
 0.911051E-013
 0.911050E-013
 0.911049E-013
 0.911049E-013
 0.911048E-013
 0.911047E-013
 0.911046E-013
 0.911045E-013
 0.911044E-013
 0.911042E-013
 0.911041E-013
 0.911040E-013
 0.911038E-013
 0.911037E-013
 0.911035E-013
 0.911034E-013
 0.911032E-013
 0.911030E-013
 0.911028E-013
 0.911027E-013
 0.911025E-013
 0.911023E-013
 0.911021E-013
 0.911019E-013
 0.911017E-013
 0.911015E-013
 0.911013E-013
 0.911011E-013
 0.911009E-013
 0.911007E-013
 0.911005E-013
 0.911003E-013
 0.911001E-013
 0.910998E-013
 0.910996E-013
 0.910994E-013
 0.910992E-013
 0.910990E-013
 0.910987E-013
 0.910985E-013
 0.910983E-013
 0.910981E-013
 0.910978E-013
 0.910976E-013
 0.910974E-013
 0.910972E-013
 0.910969E-013
 0.910967E-013
 0.910965E-013
 0.910962E-013
 0.910960E-013
 0.910958E-013
 0.910956E-013
 0.910952E-013
 0.910963E-013
 0.910864E-013
 0.911414E-013
 0.908959E-013
 0.916885E-013
 0.917912E-013
 0.908594E-013
 0.911492E-013
 0.910836E-013
 0.910952E-013
 0.910935E-013
 0.910936E-013
 0.910936E-013
 0.910936E-013
 0.910935E-013
 0.910935E-013
 0.910935E-013
 0.910934E-013
 0.910934E-013
 0.910934E-013
 0.910934E-013
 0.910933E-013
 0.910933E-013
 0.910933E-013
 0.910933E-013
 0.910932E-013
 0.910932E-013
 0.910932E-013
 0.910932E-013
 0.910932E-013
 0.910931E-013
 0.910931E-013
 0.910931E-013
 0.910931E-013
 0.910931E-013
 0.910930E-013
 0.910930E-013
 0.910930E-013
 0.910930E-013
 0.910930E-013
 0.910930E-013
 0.910930E-013
 0.910930E-013
 0.910930E-013
 0.910930E-013
 0.910930E-013
 0.910930E-013
 0.910930E-013
 0.910930E-013
 0.910930E-013
 0.910930E-013
 0.910930E-013
 0.910930E-013
 0.910930E-013
 0.910930E-013
 0.910930E-013
 0.910930E-013
 0.910930E-013
 0.910930E-013
 0.910930E-013
 0.910930E-013
 0.910930E-013
 0.910930E-013
 0.910930E-013
 0.910930E-013
 0.910930E-013
 0.910930E-013
 0.910930E-013
 0.910930E-013
 0.910930E-013
 0.910930E-013
 0.910930E-013
 0.910930E-013
 0.910930E-013
 0.910930E-013
 0.910930E-013
 0.910930E-013
 0.910930E-013
 0.910930E-013
 0.910930E-013
 0.910930E-013
 0.910930E-013
 0.910930E-013
 0.910930E-013
 0.910930E-013
 0.910930E-013
 0.910930E-013
 0.910930E-013
 0.910930E-013
 0.910930E-013
 0.910930E-013
 0.910930E-013
 0.910930E-013
 0.910930E-013
 0.910930E-013
 0.910930E-013
 0.910930E-013
 0.910930E-013
 0.910930E-013
 0.910930E-013
 0.910930E-013
 0.910930E-013
 0.910930E-013
 0.910931E-013
 0.910931E-013
 0.910931E-013
 0.910931E-013
 0.910931E-013
 0.910932E-013
 0.910932E-013
 0.910932E-013
 0.910932E-013
 0.910932E-013
 0.910933E-013
 0.910933E-013
 0.910933E-013
 0.910933E-013
 0.910934E-013
 0.910934E-013
 0.910934E-013
 0.910935E-013
 0.910935E-013
 0.910935E-013
 0.910935E-013
 0.910936E-013
 0.910936E-013
 0.910936E-013
 0.910935E-013
 0.910952E-013
 0.910836E-013
 0.911492E-013
 0.908595E-013
 0.917911E-013
 0.918940E-013
 0.908238E-013
 0.911579E-013
 0.910822E-013
 0.910956E-013
 0.910936E-013
 0.910939E-013
 0.910939E-013
 0.910939E-013
 0.910939E-013
 0.910939E-013
 0.910939E-013
 0.910939E-013
 0.910939E-013
 0.910939E-013
 0.910939E-013
 0.910939E-013
 0.910939E-013
 0.910939E-013
 0.910939E-013
 0.910939E-013
 0.910939E-013
 0.910939E-013
 0.910939E-013
 0.910939E-013
 0.910940E-013
 0.910940E-013
 0.910940E-013
 0.910940E-013
 0.910940E-013
 0.910940E-013
 0.910940E-013
 0.910941E-013
 0.910941E-013
 0.910941E-013
 0.910941E-013
 0.910941E-013
 0.910941E-013
 0.910942E-013
 0.910942E-013
 0.910942E-013
 0.910942E-013
 0.910943E-013
 0.910943E-013
 0.910943E-013
 0.910943E-013
 0.910944E-013
 0.910944E-013
 0.910944E-013
 0.910944E-013
 0.910945E-013
 0.910945E-013
 0.910945E-013
 0.910945E-013
 0.910945E-013
 0.910946E-013
 0.910946E-013
 0.910946E-013
 0.910946E-013
 0.910946E-013
 0.910946E-013
 0.910946E-013
 0.910946E-013
 0.910946E-013
 0.910946E-013
 0.910946E-013
 0.910946E-013
 0.910946E-013
 0.910946E-013
 0.910946E-013
 0.910946E-013
 0.910946E-013
 0.910946E-013
 0.910945E-013
 0.910945E-013
 0.910945E-013
 0.910945E-013
 0.910945E-013
 0.910944E-013
 0.910944E-013
 0.910944E-013
 0.910944E-013
 0.910943E-013
 0.910943E-013
 0.910943E-013
 0.910943E-013
 0.910942E-013
 0.910942E-013
 0.910942E-013
 0.910942E-013
 0.910942E-013
 0.910941E-013
 0.910941E-013
 0.910941E-013
 0.910941E-013
 0.910941E-013
 0.910940E-013
 0.910940E-013
 0.910940E-013
 0.910940E-013
 0.910940E-013
 0.910940E-013
 0.910940E-013
 0.910940E-013
 0.910939E-013
 0.910939E-013
 0.910939E-013
 0.910939E-013
 0.910939E-013
 0.910939E-013
 0.910939E-013
 0.910939E-013
 0.910939E-013
 0.910939E-013
 0.910939E-013
 0.910939E-013
 0.910939E-013
 0.910939E-013
 0.910939E-013
 0.910939E-013
 0.910939E-013
 0.910939E-013
 0.910936E-013
 0.910956E-013
 0.910822E-013
 0.911579E-013
 0.908238E-013
 0.918940E-013
 0.919966E-013
 0.907882E-013
 0.911665E-013
 0.910806E-013
 0.910958E-013
 0.910936E-013
 0.910939E-013
 0.910938E-013
 0.910938E-013
 0.910938E-013
 0.910938E-013
 0.910938E-013
 0.910938E-013
 0.910938E-013
 0.910938E-013
 0.910938E-013
 0.910938E-013
 0.910938E-013
 0.910938E-013
 0.910938E-013
 0.910938E-013
 0.910939E-013
 0.910939E-013
 0.910939E-013
 0.910939E-013
 0.910939E-013
 0.910939E-013
 0.910939E-013
 0.910939E-013
 0.910939E-013
 0.910939E-013
 0.910940E-013
 0.910940E-013
 0.910940E-013
 0.910940E-013
 0.910940E-013
 0.910940E-013
 0.910941E-013
 0.910941E-013
 0.910941E-013
 0.910941E-013
 0.910942E-013
 0.910942E-013
 0.910942E-013
 0.910942E-013
 0.910943E-013
 0.910943E-013
 0.910943E-013
 0.910944E-013
 0.910944E-013
 0.910944E-013
 0.910944E-013
 0.910945E-013
 0.910945E-013
 0.910945E-013
 0.910945E-013
 0.910945E-013
 0.910946E-013
 0.910946E-013
 0.910946E-013
 0.910946E-013
 0.910946E-013
 0.910946E-013
 0.910946E-013
 0.910946E-013
 0.910946E-013
 0.910946E-013
 0.910946E-013
 0.910946E-013
 0.910946E-013
 0.910946E-013
 0.910945E-013
 0.910945E-013
 0.910945E-013
 0.910945E-013
 0.910945E-013
 0.910944E-013
 0.910944E-013
 0.910944E-013
 0.910944E-013
 0.910943E-013
 0.910943E-013
 0.910943E-013
 0.910942E-013
 0.910942E-013
 0.910942E-013
 0.910942E-013
 0.910941E-013
 0.910941E-013
 0.910941E-013
 0.910941E-013
 0.910940E-013
 0.910940E-013
 0.910940E-013
 0.910940E-013
 0.910940E-013
 0.910940E-013
 0.910939E-013
 0.910939E-013
 0.910939E-013
 0.910939E-013
 0.910939E-013
 0.910939E-013
 0.910939E-013
 0.910939E-013
 0.910939E-013
 0.910939E-013
 0.910939E-013
 0.910938E-013
 0.910938E-013
 0.910938E-013
 0.910938E-013
 0.910938E-013
 0.910938E-013
 0.910938E-013
 0.910938E-013
 0.910938E-013
 0.910938E-013
 0.910938E-013
 0.910938E-013
 0.910938E-013
 0.910939E-013
 0.910936E-013
 0.910958E-013
 0.910806E-013
 0.911665E-013
 0.907882E-013
 0.919965E-013
 0.920989E-013
 0.907527E-013
 0.911750E-013
 0.910790E-013
 0.910960E-013
 0.910936E-013
 0.910939E-013
 0.910938E-013
 0.910938E-013
 0.910938E-013
 0.910938E-013
 0.910938E-013
 0.910938E-013
 0.910938E-013
 0.910938E-013
 0.910938E-013
 0.910938E-013
 0.910938E-013
 0.910939E-013
 0.910939E-013
 0.910939E-013
 0.910939E-013
 0.910939E-013
 0.910939E-013
 0.910939E-013
 0.910939E-013
 0.910939E-013
 0.910939E-013
 0.910939E-013
 0.910940E-013
 0.910940E-013
 0.910940E-013
 0.910940E-013
 0.910940E-013
 0.910941E-013
 0.910941E-013
 0.910941E-013
 0.910941E-013
 0.910942E-013
 0.910942E-013
 0.910942E-013
 0.910942E-013
 0.910943E-013
 0.910943E-013
 0.910943E-013
 0.910944E-013
 0.910944E-013
 0.910944E-013
 0.910945E-013
 0.910945E-013
 0.910945E-013
 0.910946E-013
 0.910946E-013
 0.910946E-013
 0.910947E-013
 0.910947E-013
 0.910947E-013
 0.910947E-013
 0.910947E-013
 0.910947E-013
 0.910948E-013
 0.910948E-013
 0.910948E-013
 0.910948E-013
 0.910948E-013
 0.910948E-013
 0.910948E-013
 0.910948E-013
 0.910947E-013
 0.910947E-013
 0.910947E-013
 0.910947E-013
 0.910947E-013
 0.910947E-013
 0.910946E-013
 0.910946E-013
 0.910946E-013
 0.910945E-013
 0.910945E-013
 0.910945E-013
 0.910944E-013
 0.910944E-013
 0.910944E-013
 0.910943E-013
 0.910943E-013
 0.910943E-013
 0.910942E-013
 0.910942E-013
 0.910942E-013
 0.910942E-013
 0.910941E-013
 0.910941E-013
 0.910941E-013
 0.910941E-013
 0.910940E-013
 0.910940E-013
 0.910940E-013
 0.910940E-013
 0.910940E-013
 0.910939E-013
 0.910939E-013
 0.910939E-013
 0.910939E-013
 0.910939E-013
 0.910939E-013
 0.910939E-013
 0.910939E-013
 0.910939E-013
 0.910939E-013
 0.910939E-013
 0.910939E-013
 0.910938E-013
 0.910938E-013
 0.910938E-013
 0.910938E-013
 0.910938E-013
 0.910938E-013
 0.910938E-013
 0.910938E-013
 0.910938E-013
 0.910938E-013
 0.910939E-013
 0.910936E-013
 0.910960E-013
 0.910790E-013
 0.911750E-013
 0.907527E-013
 0.920988E-013
 0.922010E-013
 0.907172E-013
 0.911836E-013
 0.910775E-013
 0.910962E-013
 0.910935E-013
 0.910939E-013
 0.910938E-013
 0.910938E-013
 0.910938E-013
 0.910938E-013
 0.910938E-013
 0.910938E-013
 0.910938E-013
 0.910938E-013
 0.910938E-013
 0.910938E-013
 0.910939E-013
 0.910939E-013
 0.910939E-013
 0.910939E-013
 0.910939E-013
 0.910939E-013
 0.910939E-013
 0.910939E-013
 0.910939E-013
 0.910939E-013
 0.910939E-013
 0.910940E-013
 0.910940E-013
 0.910940E-013
 0.910940E-013
 0.910940E-013
 0.910941E-013
 0.910941E-013
 0.910941E-013
 0.910942E-013
 0.910942E-013
 0.910942E-013
 0.910943E-013
 0.910943E-013
 0.910943E-013
 0.910944E-013
 0.910944E-013
 0.910944E-013
 0.910945E-013
 0.910945E-013
 0.910946E-013
 0.910946E-013
 0.910946E-013
 0.910947E-013
 0.910947E-013
 0.910947E-013
 0.910948E-013
 0.910948E-013
 0.910948E-013
 0.910949E-013
 0.910949E-013
 0.910949E-013
 0.910949E-013
 0.910949E-013
 0.910949E-013
 0.910950E-013
 0.910950E-013
 0.910950E-013
 0.910950E-013
 0.910949E-013
 0.910949E-013
 0.910949E-013
 0.910949E-013
 0.910949E-013
 0.910949E-013
 0.910948E-013
 0.910948E-013
 0.910948E-013
 0.910947E-013
 0.910947E-013
 0.910947E-013
 0.910946E-013
 0.910946E-013
 0.910946E-013
 0.910945E-013
 0.910945E-013
 0.910944E-013
 0.910944E-013
 0.910944E-013
 0.910943E-013
 0.910943E-013
 0.910943E-013
 0.910942E-013
 0.910942E-013
 0.910942E-013
 0.910941E-013
 0.910941E-013
 0.910941E-013
 0.910941E-013
 0.910940E-013
 0.910940E-013
 0.910940E-013
 0.910940E-013
 0.910940E-013
 0.910939E-013
 0.910939E-013
 0.910939E-013
 0.910939E-013
 0.910939E-013
 0.910939E-013
 0.910939E-013
 0.910939E-013
 0.910939E-013
 0.910939E-013
 0.910939E-013
 0.910938E-013
 0.910938E-013
 0.910938E-013
 0.910938E-013
 0.910938E-013
 0.910938E-013
 0.910938E-013
 0.910938E-013
 0.910938E-013
 0.910939E-013
 0.910935E-013
 0.910962E-013
 0.910775E-013
 0.911835E-013
 0.907173E-013
 0.922009E-013
 0.923028E-013
 0.906819E-013
 0.911921E-013
 0.910759E-013
 0.910965E-013
 0.910935E-013
 0.910939E-013
 0.910938E-013
 0.910938E-013
 0.910938E-013
 0.910938E-013
 0.910938E-013
 0.910938E-013
 0.910938E-013
 0.910938E-013
 0.910938E-013
 0.910939E-013
 0.910939E-013
 0.910939E-013
 0.910939E-013
 0.910939E-013
 0.910939E-013
 0.910939E-013
 0.910939E-013
 0.910939E-013
 0.910939E-013
 0.910940E-013
 0.910940E-013
 0.910940E-013
 0.910940E-013
 0.910940E-013
 0.910941E-013
 0.910941E-013
 0.910941E-013
 0.910941E-013
 0.910942E-013
 0.910942E-013
 0.910943E-013
 0.910943E-013
 0.910943E-013
 0.910944E-013
 0.910944E-013
 0.910945E-013
 0.910945E-013
 0.910945E-013
 0.910946E-013
 0.910946E-013
 0.910947E-013
 0.910947E-013