# vtk DataFile Version 3.0
Solution data
ASCII
DATASET STRUCTURED_GRID
DIMENSIONS 128 128 1
POINTS 16384  double
      0.000004      0.000004      0.000000
      0.000012      0.000004      0.000000
      0.000020      0.000004      0.000000
      0.000027      0.000004      0.000000
      0.000035      0.000004      0.000000
      0.000043      0.000004      0.000000
      0.000051      0.000004      0.000000
      0.000059      0.000004      0.000000
      0.000066      0.000004      0.000000
      0.000074      0.000004      0.000000
      0.000082      0.000004      0.000000
      0.000090      0.000004      0.000000
      0.000098      0.000004      0.000000
      0.000105      0.000004      0.000000
      0.000113      0.000004      0.000000
      0.000121      0.000004      0.000000
      0.000129      0.000004      0.000000
      0.000137      0.000004      0.000000
      0.000145      0.000004      0.000000
      0.000152      0.000004      0.000000
      0.000160      0.000004      0.000000
      0.000168      0.000004      0.000000
      0.000176      0.000004      0.000000
      0.000184      0.000004      0.000000
      0.000191      0.000004      0.000000
      0.000199      0.000004      0.000000
      0.000207      0.000004      0.000000
      0.000215      0.000004      0.000000
      0.000223      0.000004      0.000000
      0.000230      0.000004      0.000000
      0.000238      0.000004      0.000000
      0.000246      0.000004      0.000000
      0.000254      0.000004      0.000000
      0.000262      0.000004      0.000000
      0.000270      0.000004      0.000000
      0.000277      0.000004      0.000000
      0.000285      0.000004      0.000000
      0.000293      0.000004      0.000000
      0.000301      0.000004      0.000000
      0.000309      0.000004      0.000000
      0.000316      0.000004      0.000000
      0.000324      0.000004      0.000000
      0.000332      0.000004      0.000000
      0.000340      0.000004      0.000000
      0.000348      0.000004      0.000000
      0.000355      0.000004      0.000000
      0.000363      0.000004      0.000000
      0.000371      0.000004      0.000000
      0.000379      0.000004      0.000000
      0.000387      0.000004      0.000000
      0.000395      0.000004      0.000000
      0.000402      0.000004      0.000000
      0.000410      0.000004      0.000000
      0.000418      0.000004      0.000000
      0.000426      0.000004      0.000000
      0.000434      0.000004      0.000000
      0.000441      0.000004      0.000000
      0.000449      0.000004      0.000000
      0.000457      0.000004      0.000000
      0.000465      0.000004      0.000000
      0.000473      0.000004      0.000000
      0.000480      0.000004      0.000000
      0.000488      0.000004      0.000000
      0.000496      0.000004      0.000000
      0.000504      0.000004      0.000000
      0.000512      0.000004      0.000000
      0.000520      0.000004      0.000000
      0.000527      0.000004      0.000000
      0.000535      0.000004      0.000000
      0.000543      0.000004      0.000000
      0.000551      0.000004      0.000000
      0.000559      0.000004      0.000000
      0.000566      0.000004      0.000000
      0.000574      0.000004      0.000000
      0.000582      0.000004      0.000000
      0.000590      0.000004      0.000000
      0.000598      0.000004      0.000000
      0.000605      0.000004      0.000000
      0.000613      0.000004      0.000000
      0.000621      0.000004      0.000000
      0.000629      0.000004      0.000000
      0.000637      0.000004      0.000000
      0.000645      0.000004      0.000000
      0.000652      0.000004      0.000000
      0.000660      0.000004      0.000000
      0.000668      0.000004      0.000000
      0.000676      0.000004      0.000000
      0.000684      0.000004      0.000000
      0.000691      0.000004      0.000000
      0.000699      0.000004      0.000000
      0.000707      0.000004      0.000000
      0.000715      0.000004      0.000000
      0.000723      0.000004      0.000000
      0.000730      0.000004      0.000000
      0.000738      0.000004      0.000000
      0.000746      0.000004      0.000000
      0.000754      0.000004      0.000000
      0.000762      0.000004      0.000000
      0.000770      0.000004      0.000000
      0.000777      0.000004      0.000000
      0.000785      0.000004      0.000000
      0.000793      0.000004      0.000000
      0.000801      0.000004      0.000000
      0.000809      0.000004      0.000000
      0.000816      0.000004      0.000000
      0.000824      0.000004      0.000000
      0.000832      0.000004      0.000000
      0.000840      0.000004      0.000000
      0.000848      0.000004      0.000000
      0.000855      0.000004      0.000000
      0.000863      0.000004      0.000000
      0.000871      0.000004      0.000000
      0.000879      0.000004      0.000000
      0.000887      0.000004      0.000000
      0.000895      0.000004      0.000000
      0.000902      0.000004      0.000000
      0.000910      0.000004      0.000000
      0.000918      0.000004      0.000000
      0.000926      0.000004      0.000000
      0.000934      0.000004      0.000000
      0.000941      0.000004      0.000000
      0.000949      0.000004      0.000000
      0.000957      0.000004      0.000000
      0.000965      0.000004      0.000000
      0.000973      0.000004      0.000000
      0.000980      0.000004      0.000000
      0.000988      0.000004      0.000000
      0.000996      0.000004      0.000000
      0.000004      0.000012      0.000000
      0.000012      0.000012      0.000000
      0.000020      0.000012      0.000000
      0.000027      0.000012      0.000000
      0.000035      0.000012      0.000000
      0.000043      0.000012      0.000000
      0.000051      0.000012      0.000000
      0.000059      0.000012      0.000000
      0.000066      0.000012      0.000000
      0.000074      0.000012      0.000000
      0.000082      0.000012      0.000000
      0.000090      0.000012      0.000000
      0.000098      0.000012      0.000000
      0.000105      0.000012      0.000000
      0.000113      0.000012      0.000000
      0.000121      0.000012      0.000000
      0.000129      0.000012      0.000000
      0.000137      0.000012      0.000000
      0.000145      0.000012      0.000000
      0.000152      0.000012      0.000000
      0.000160      0.000012      0.000000
      0.000168      0.000012      0.000000
      0.000176      0.000012      0.000000
      0.000184      0.000012      0.000000
      0.000191      0.000012      0.000000
      0.000199      0.000012      0.000000
      0.000207      0.000012      0.000000
      0.000215      0.000012      0.000000
      0.000223      0.000012      0.000000
      0.000230      0.000012      0.000000
      0.000238      0.000012      0.000000
      0.000246      0.000012      0.000000
      0.000254      0.000012      0.000000
      0.000262      0.000012      0.000000
      0.000270      0.000012      0.000000
      0.000277      0.000012      0.000000
      0.000285      0.000012      0.000000
      0.000293      0.000012      0.000000
      0.000301      0.000012      0.000000
      0.000309      0.000012      0.000000
      0.000316      0.000012      0.000000
      0.000324      0.000012      0.000000
      0.000332      0.000012      0.000000
      0.000340      0.000012      0.000000
      0.000348      0.000012      0.000000
      0.000355      0.000012      0.000000
      0.000363      0.000012      0.000000
      0.000371      0.000012      0.000000
      0.000379      0.000012      0.000000
      0.000387      0.000012      0.000000
      0.000395      0.000012      0.000000
      0.000402      0.000012      0.000000
      0.000410      0.000012      0.000000
      0.000418      0.000012      0.000000
      0.000426      0.000012      0.000000
      0.000434      0.000012      0.000000
      0.000441      0.000012      0.000000
      0.000449      0.000012      0.000000
      0.000457      0.000012      0.000000
      0.000465      0.000012      0.000000
      0.000473      0.000012      0.000000
      0.000480      0.000012      0.000000
      0.000488      0.000012      0.000000
      0.000496      0.000012      0.000000
      0.000504      0.000012      0.000000
      0.000512      0.000012      0.000000
      0.000520      0.000012      0.000000
      0.000527      0.000012      0.000000
      0.000535      0.000012      0.000000
      0.000543      0.000012      0.000000
      0.000551      0.000012      0.000000
      0.000559      0.000012      0.000000
      0.000566      0.000012      0.000000
      0.000574      0.000012      0.000000
      0.000582      0.000012      0.000000
      0.000590      0.000012      0.000000
      0.000598      0.000012      0.000000
      0.000605      0.000012      0.000000
      0.000613      0.000012      0.000000
      0.000621      0.000012      0.000000
      0.000629      0.000012      0.000000
      0.000637      0.000012      0.000000
      0.000645      0.000012      0.000000
      0.000652      0.000012      0.000000
      0.000660      0.000012      0.000000
      0.000668      0.000012      0.000000
      0.000676      0.000012      0.000000
      0.000684      0.000012      0.000000
      0.000691      0.000012      0.000000
      0.000699      0.000012      0.000000
      0.000707      0.000012      0.000000
      0.000715      0.000012      0.000000
      0.000723      0.000012      0.000000
      0.000730      0.000012      0.000000
      0.000738      0.000012      0.000000
      0.000746      0.000012      0.000000
      0.000754      0.000012      0.000000
      0.000762      0.000012      0.000000
      0.000770      0.000012      0.000000
      0.000777      0.000012      0.000000
      0.000785      0.000012      0.000000
[...]
POINT_DATA 16384
SCALARS rhoe double
LOOKUP_TABLE default
 0.915640E-013
 0.912977E-013
 0.915220E-013
 0.915865E-013
 0.916931E-013
 0.917901E-013
 0.918886E-013
 0.919866E-013
 0.920844E-013
 0.921818E-013
 0.922790E-013
 0.923759E-013
 0.924725E-013
 0.925688E-013
 0.926647E-013
 0.927602E-013
 0.928554E-013
 0.929501E-013
 0.930444E-013
 0.931382E-013
 0.932314E-013
 0.933242E-013
 0.934163E-013
 0.935077E-013
 0.935985E-013
 0.936886E-013
 0.937778E-013
 0.938662E-013
 0.939536E-013
 0.940401E-013
 0.941255E-013
 0.942097E-013
 0.942928E-013
 0.943745E-013
 0.944549E-013
 0.945339E-013
 0.946112E-013
 0.946870E-013
 0.947611E-013
 0.948333E-013
 0.949036E-013
 0.949719E-013
 0.950381E-013
 0.951022E-013
 0.951639E-013
 0.952233E-013
 0.952801E-013
 0.953344E-013
 0.953861E-013
 0.954350E-013
 0.954810E-013
 0.955242E-013
 0.955643E-013
 0.956014E-013
 0.956354E-013
 0.956661E-013
 0.956936E-013
 0.957178E-013
 0.957386E-013
 0.957560E-013
 0.957699E-013
 0.957804E-013
 0.957875E-013
 0.957910E-013
 0.957910E-013
 0.957875E-013
 0.957804E-013
 0.957699E-013
 0.957560E-013
 0.957386E-013
 0.957178E-013
 0.956936E-013
 0.956661E-013
 0.956354E-013
 0.956014E-013
 0.955643E-013
 0.955242E-013
 0.954810E-013
 0.954350E-013
 0.953861E-013
 0.953344E-013
 0.952801E-013
 0.952232E-013
 0.951639E-013
 0.951021E-013
 0.950381E-013
 0.949719E-013
 0.949036E-013
 0.948333E-013
 0.947610E-013
 0.946870E-013
 0.946112E-013
 0.945338E-013
 0.944549E-013
 0.943745E-013
 0.942927E-013
 0.942097E-013
 0.941254E-013
 0.940400E-013
 0.939536E-013
 0.938661E-013
 0.937778E-013
 0.936885E-013
 0.935985E-013
 0.935077E-013
 0.934163E-013
 0.933241E-013
 0.932314E-013
 0.931381E-013
 0.930443E-013
 0.929501E-013
 0.928553E-013
 0.927602E-013
 0.926646E-013
 0.925687E-013
 0.924725E-013
 0.923759E-013
 0.922790E-013
 0.921818E-013
 0.920843E-013
 0.919866E-013
 0.918886E-013
 0.917901E-013
 0.916931E-013
 0.915865E-013
 0.915220E-013
 0.912977E-013
 0.915639E-013
 0.912977E-013
 0.908445E-013
 0.909600E-013
 0.908647E-013
 0.908303E-013
 0.907818E-013
 0.907362E-013
 0.906903E-013
 0.906446E-013
 0.905990E-013
 0.905535E-013
 0.905082E-013
 0.904630E-013
 0.904180E-013
 0.903732E-013
 0.903285E-013
 0.902841E-013
 0.902398E-013
 0.901958E-013
 0.901519E-013
 0.901084E-013
 0.900650E-013
 0.900220E-013
 0.899793E-013
 0.899369E-013
 0.898948E-013
 0.898532E-013
 0.898119E-013
 0.897711E-013
 0.897307E-013
 0.896908E-013
 0.896515E-013
 0.896127E-013
 0.895746E-013
 0.895370E-013
 0.895002E-013
 0.894641E-013
 0.894287E-013
 0.893941E-013
 0.893604E-013
 0.893276E-013
 0.892957E-013
 0.892648E-013
 0.892350E-013
 0.892062E-013
 0.891785E-013
 0.891519E-013
 0.891266E-013
 0.891025E-013
 0.890797E-013
 0.890582E-013
 0.890381E-013
 0.890193E-013
 0.890020E-013
 0.889862E-013
 0.889719E-013
 0.889590E-013
 0.889478E-013
 0.889381E-013
 0.889299E-013
 0.889234E-013
 0.889185E-013
 0.889153E-013
 0.889136E-013
 0.889136E-013
 0.889153E-013
 0.889185E-013
 0.889234E-013
 0.889299E-013
 0.889381E-013
 0.889478E-013
 0.889591E-013
 0.889719E-013
 0.889862E-013
 0.890021E-013
 0.890194E-013
 0.890381E-013
 0.890582E-013
 0.890797E-013
 0.891025E-013
 0.891266E-013
 0.891520E-013
 0.891785E-013
 0.892062E-013
 0.892350E-013
 0.892649E-013
 0.892958E-013
 0.893277E-013
 0.893605E-013
 0.893942E-013
 0.894287E-013
 0.894641E-013
 0.895002E-013
 0.895371E-013
 0.895746E-013
 0.896128E-013
 0.896515E-013
 0.896909E-013
 0.897307E-013
 0.897711E-013
 0.898119E-013
 0.898532E-013
 0.898949E-013
 0.899369E-013
 0.899793E-013
 0.900220E-013
 0.900651E-013
 0.901084E-013
 0.901520E-013
 0.901958E-013
 0.902398E-013
 0.902841E-013
 0.903286E-013
 0.903732E-013
 0.904181E-013
 0.904631E-013
 0.905082E-013
 0.905535E-013
 0.905990E-013
 0.906446E-013
 0.906903E-013
 0.907362E-013
 0.907818E-013
 0.908303E-013
 0.908647E-013
 0.909600E-013
 0.908445E-013
 0.912977E-013
 0.915220E-013
 0.909600E-013
 0.912049E-013
 0.911508E-013
 0.911833E-013
 0.911954E-013
 0.912114E-013
 0.912267E-013
 0.912421E-013
 0.912574E-013
 0.912726E-013
 0.912878E-013
 0.913030E-013
 0.913181E-013
 0.913331E-013
 0.913481E-013
 0.913630E-013
 0.913779E-013
 0.913927E-013
 0.914074E-013
 0.914220E-013
 0.914365E-013
 0.914510E-013
 0.914653E-013
 0.914795E-013
 0.914936E-013
 0.915076E-013
 0.915214E-013
 0.915351E-013
 0.915487E-013
 0.915620E-013
 0.915752E-013
 0.915882E-013
 0.916010E-013
 0.916136E-013
 0.916260E-013
 0.916381E-013
 0.916500E-013
 0.916615E-013
 0.916728E-013
 0.916838E-013
 0.916945E-013
 0.917049E-013
 0.917149E-013
 0.917246E-013
 0.917339E-013
 0.917428E-013
 0.917513E-013
 0.917593E-013
 0.917670E-013
 0.917742E-013
 0.917810E-013
 0.917872E-013
 0.917930E-013
 0.917983E-013
 0.918032E-013
 0.918075E-013
 0.918112E-013
 0.918145E-013
 0.918172E-013
 0.918194E-013
 0.918210E-013
 0.918221E-013
 0.918227E-013
 0.918227E-013
 0.918221E-013
 0.918210E-013
 0.918194E-013
 0.918172E-013
 0.918145E-013
 0.918112E-013
 0.918074E-013
 0.918031E-013
 0.917983E-013
 0.917930E-013
 0.917872E-013
 0.917809E-013
 0.917742E-013
 0.917670E-013
 0.917593E-013
 0.917512E-013
 0.917428E-013
 0.917339E-013
 0.917246E-013
 0.917149E-013
 0.917049E-013
 0.916945E-013
 0.916838E-013
 0.916728E-013
 0.916615E-013
 0.916499E-013
 0.916381E-013
 0.916260E-013
 0.916136E-013
 0.916010E-013
 0.915882E-013
 0.915752E-013
 0.915620E-013
 0.915487E-013
 0.915351E-013
 0.915214E-013
 0.915076E-013
 0.914936E-013
 0.914795E-013
 0.914653E-013
 0.914509E-013
 0.914365E-013
 0.914220E-013
 0.914074E-013
 0.913927E-013
 0.913779E-013
 0.913630E-013
 0.913481E-013
 0.913331E-013
 0.913181E-013
 0.913030E-013
 0.912878E-013
 0.912726E-013
 0.912574E-013
 0.912420E-013
 0.912267E-013
 0.912114E-013
 0.911954E-013
 0.911833E-013
 0.911508E-013
 0.912049E-013
 0.909600E-013
 0.915220E-013
 0.915865E-013
 0.908647E-013
 0.911508E-013
 0.910578E-013
 0.910755E-013
 0.910671E-013
 0.910638E-013
 0.910597E-013
 0.910557E-013
 0.910518E-013
 0.910478E-013
 0.910439E-013
 0.910399E-013
 0.910360E-013
 0.910321E-013
 0.910282E-013
 0.910243E-013
 0.910205E-013
 0.910167E-013
 0.910129E-013
 0.910091E-013
 0.910053E-013
 0.910016E-013
 0.909979E-013
 0.909942E-013
 0.909905E-013
 0.909869E-013
 0.909833E-013
 0.909798E-013
 0.909763E-013
 0.909728E-013
 0.909694E-013
 0.909661E-013
 0.909627E-013
 0.909595E-013
 0.909563E-013
 0.909532E-013
 0.909501E-013
 0.909471E-013
 0.909442E-013
 0.909414E-013
 0.909386E-013
 0.909359E-013
 0.909334E-013
 0.909309E-013
 0.909285E-013
 0.909262E-013
 0.909240E-013
 0.909219E-013
 0.909199E-013
 0.909181E-013
 0.909163E-013
 0.909147E-013
 0.909132E-013
 0.909119E-013
 0.909106E-013
 0.909095E-013
 0.909086E-013
 0.909077E-013
 0.909070E-013
 0.909065E-013
 0.909060E-013
 0.909058E-013
 0.909056E-013
 0.909056E-013
 0.909058E-013
 0.909060E-013
 0.909065E-013
 0.909070E-013
 0.909077E-013
 0.909086E-013
 0.909095E-013
 0.909106E-013
 0.909119E-013
 0.909132E-013
 0.909147E-013
 0.909164E-013
 0.909181E-013
 0.909199E-013
 0.909219E-013
 0.909240E-013
 0.909262E-013
 0.909285E-013
 0.909309E-013
 0.909334E-013
 0.909359E-013
 0.909386E-013
 0.909414E-013
 0.909442E-013
 0.909471E-013
 0.909501E-013
 0.909532E-013
 0.909563E-013
 0.909595E-013
 0.909628E-013
 0.909661E-013
 0.909694E-013
 0.909728E-013
 0.909763E-013
 0.909798E-013
 0.909833E-013
 0.909869E-013
 0.909905E-013
 0.909942E-013
 0.909979E-013
 0.910016E-013
 0.910053E-013
 0.910091E-013
 0.910129E-013
 0.910167E-013
 0.910205E-013
 0.910244E-013
 0.910282E-013
 0.910321E-013
 0.910360E-013
 0.910399E-013
 0.910439E-013
 0.910478E-013
 0.910518E-013
 0.910557E-013
 0.910597E-013
 0.910638E-013
 0.910671E-013
 0.910755E-013
 0.910578E-013
 0.911508E-013
 0.908647E-013
 0.915865E-013
 0.916931E-013
 0.908303E-013
 0.911833E-013
 0.910755E-013
 0.911031E-013
 0.910985E-013
 0.911003E-013
 0.911010E-013
 0.911018E-013
 0.911027E-013
 0.911035E-013
 0.911043E-013
 0.911052E-013
 0.911060E-013
 0.911068E-013
 0.911076E-013
 0.911085E-013
 0.911093E-013
 0.911101E-013
 0.911109E-013
 0.911117E-013
 0.911125E-013
 0.911133E-013
 0.911141E-013
 0.911148E-013
 0.911156E-013
 0.911164E-013
 0.911171E-013
 0.911179E-013
 0.911186E-013
 0.911194E-013
 0.911201E-013
 0.911208E-013
 0.911215E-013
 0.911222E-013
 0.911229E-013
 0.911235E-013
 0.911242E-013
 0.911248E-013
 0.911254E-013
 0.911260E-013
 0.911266E-013
 0.911272E-013
 0.911277E-013
 0.911283E-013
 0.911288E-013
 0.911293E-013
 0.911297E-013
 0.911302E-013
 0.911306E-013
 0.911310E-013
 0.911314E-013
 0.911317E-013
 0.911321E-013
 0.911323E-013
 0.911326E-013
 0.911328E-013
 0.911331E-013
 0.911332E-013
 0.911334E-013
 0.911335E-013
 0.911336E-013
 0.911337E-013
 0.911337E-013
 0.911337E-013
 0.911337E-013
 0.911336E-013
 0.911335E-013
 0.911334E-013
 0.911332E-013
 0.911331E-013
 0.911328E-013
 0.911326E-013
 0.911323E-013
 0.911321E-013
 0.911317E-013
 0.911314E-013
 0.911310E-013
 0.911306E-013
 0.911302E-013
 0.911297E-013
 0.911293E-013
 0.911288E-013
 0.911283E-013
 0.911277E-013
 0.911272E-013
 0.911266E-013
 0.911260E-013
 0.911254E-013
 0.911248E-013
 0.911242E-013
 0.911235E-013
 0.911229E-013
 0.911222E-013
 0.911215E-013
 0.911208E-013
 0.911201E-013
 0.911194E-013
 0.911186E-013
 0.911179E-013
 0.911171E-013
 0.911164E-013
 0.911156E-013
 0.911148E-013
 0.911141E-013
 0.911133E-013
 0.911125E-013
 0.911117E-013
 0.911109E-013
 0.911101E-013
 0.911093E-013
 0.911085E-013
 0.911076E-013
 0.911068E-013
 0.911060E-013
 0.911052E-013
 0.911043E-013
 0.911035E-013
 0.911027E-013
 0.911018E-013
 0.911010E-013
 0.911003E-013
 0.910985E-013
 0.911031E-013
 0.910755E-013
 0.911833E-013
 0.908303E-013
 0.916931E-013
 0.917901E-013
 0.907818E-013
 0.911954E-013
 0.910671E-013
 0.910985E-013
 0.910919E-013
 0.910929E-013
 0.910925E-013
 0.910924E-013
 0.910923E-013
 0.910921E-013
 0.910920E-013
 0.910918E-013
 0.910917E-013
 0.910915E-013
 0.910914E-013
 0.910912E-013
 0.910911E-013
 0.910910E-013
 0.910908E-013
 0.910907E-013
 0.910905E-013
 0.910904E-013
 0.910903E-013
 0.910901E-013
 0.910900E-013
 0.910899E-013
 0.910897E-013
 0.910896E-013
 0.910895E-013
 0.910893E-013
 0.910892E-013
 0.910891E-013
 0.910890E-013
 0.910889E-013
 0.910887E-013
 0.910886E-013
 0.910885E-013
 0.910884E-013
 0.910883E-013
 0.910882E-013
 0.910881E-013
 0.910880E-013
 0.910879E-013
 0.910878E-013
 0.910878E-013
 0.910877E-013
 0.910876E-013
 0.910875E-013
 0.910875E-013
 0.910874E-013
 0.910874E-013
 0.910873E-013
 0.910873E-013
 0.910872E-013
 0.910872E-013
 0.910871E-013
 0.910871E-013
 0.910871E-013
 0.910870E-013
 0.910870E-013
 0.910870E-013
 0.910870E-013
 0.910870E-013
 0.910870E-013
 0.910870E-013
 0.910870E-013
 0.910870E-013
 0.910870E-013
 0.910871E-013
 0.910871E-013
 0.910871E-013
 0.910872E-013
 0.910872E-013
 0.910873E-013
 0.910873E-013
 0.910874E-013
 0.910874E-013
 0.910875E-013
 0.910875E-013
 0.910876E-013
 0.910877E-013
 0.910878E-013
 0.910879E-013
 0.910879E-013
 0.910880E-013
 0.910881E-013
 0.910882E-013
 0.910883E-013
 0.910884E-013
 0.910885E-013
 0.910886E-013
 0.910887E-013
 0.910889E-013
 0.910890E-013
 0.910891E-013
 0.910892E-013
 0.910893E-013
 0.910895E-013
 0.910896E-013
 0.910897E-013
 0.910899E-013
 0.910900E-013
 0.910901E-013
 0.910903E-013
 0.910904E-013
 0.910905E-013
 0.910907E-013
 0.910908E-013
 0.910910E-013
 0.910911E-013
 0.910912E-013
 0.910914E-013
 0.910915E-013
 0.910917E-013
 0.910918E-013
 0.910920E-013
 0.910921E-013
 0.910923E-013
 0.910924E-013
 0.910925E-013
 0.910929E-013
 0.910919E-013
 0.910985E-013
 0.910671E-013
 0.911953E-013
 0.907818E-013
 0.917901E-013
 0.918886E-013
 0.907362E-013
 0.912114E-013
 0.910638E-013
 0.911003E-013
 0.910929E-013
 0.910942E-013
 0.910940E-013
 0.910941E-013
 0.910941E-013
 0.910941E-013
 0.910941E-013
 0.910941E-013
 0.910942E-013
 0.910942E-013
 0.910942E-013
 0.910942E-013
 0.910943E-013
 0.910943E-013
 0.910943E-013
 0.910943E-013
 0.910943E-013
 0.910944E-013
 0.910944E-013
 0.910944E-013
 0.910944E-013
 0.910945E-013
 0.910945E-013
 0.910945E-013
 0.910945E-013
 0.910946E-013
 0.910946E-013
 0.910946E-013
 0.910946E-013
 0.910947E-013
 0.910947E-013
 0.910947E-013
 0.910947E-013
 0.910948E-013
 0.910948E-013
 0.910948E-013
 0.910948E-013
 0.910949E-013
 0.910949E-013
 0.910949E-013
 0.910949E-013
 0.910949E-013
 0.910950E-013
 0.910950E-013
 0.910950E-013
 0.910950E-013
 0.910950E-013
 0.910951E-013
 0.910951E-013
 0.910951E-013
 0.910951E-013
 0.910951E-013
 0.910951E-013
 0.910951E-013
 0.910951E-013
 0.910952E-013
 0.910952E-013
 0.910952E-013
 0.910952E-013
 0.910952E-013
 0.910952E-013
 0.910952E-013
 0.910952E-013
 0.910951E-013
 0.910951E-013
 0.910951E-013
 0.910951E-013
 0.910951E-013
 0.910951E-013
 0.910951E-013
 0.910951E-013
 0.910950E-013
 0.910950E-013
 0.910950E-013
 0.910950E-013
 0.910950E-013
 0.910949E-013
 0.910949E-013
 0.910949E-013
 0.910949E-013
 0.910949E-013
 0.910948E-013
 0.910948E-013
 0.910948E-013
 0.910948E-013
 0.910947E-013
 0.910947E-013
 0.910947E-013
 0.910947E-013
 0.910946E-013
 0.910946E-013
 0.910946E-013
 0.910946E-013
 0.910945E-013
 0.910945E-013
 0.910945E-013
 0.910945E-013
 0.910944E-013
 0.910944E-013
 0.910944E-013
 0.910944E-013
 0.910943E-013
 0.910943E-013
 0.910943E-013
 0.910943E-013
 0.910943E-013
 0.910942E-013
 0.910942E-013
 0.910942E-013
 0.910942E-013
 0.910941E-013
 0.910941E-013
 0.910941E-013
 0.910941E-013
 0.910941E-013
 0.910940E-013
 0.910942E-013
 0.910929E-013
 0.911003E-013
 0.910638E-013
 0.912114E-013
 0.907362E-013
 0.918886E-013
 0.919866E-013
 0.906903E-013
 0.912267E-013
 0.910597E-013
 0.911010E-013
 0.910925E-013
 0.910940E-013
 0.910938E-013
 0.910938E-013
 0.910938E-013
 0.910938E-013
 0.910938E-013
 0.910938E-013
 0.910938E-013
 0.910938E-013
 0.910938E-013
 0.910938E-013
 0.910938E-013
 0.910938E-013
 0.910938E-013
 0.910938E-013
 0.910938E-013
 0.910938E-013
 0.910938E-013
 0.910938E-013
 0.910938E-013
 0.910938E-013
 0.910938E-013
 0.910938E-013
 0.910938E-013
 0.910938E-013
 0.910938E-013
 0.910938E-013
 0.910938E-013
 0.910938E-013
 0.910938E-013
 0.910938E-013
 0.910938E-013
 0.910938E-013
 0.910938E-013
 0.910938E-013
 0.910938E-013
 0.910939E-013
 0.910939E-013
 0.910939E-013
 0.910939E-013
 0.910939E-013
 0.910939E-013
 0.910939E-013
 0.910939E-013
 0.910939E-013
 0.910939E-013
 0.910939E-013
 0.910939E-013
 0.910940E-013
 0.910940E-013
 0.910940E-013
 0.910940E-013
 0.910940E-013
 0.910940E-013
 0.910940E-013
 0.910940E-013
 0.910940E-013
 0.910940E-013
 0.910940E-013
 0.910940E-013
 0.910940E-013
 0.910940E-013
 0.910940E-013
 0.910940E-013
 0.910940E-013
 0.910940E-013
 0.910940E-013
 0.910940E-013
 0.910939E-013
 0.910939E-013
 0.910939E-013
 0.910939E-013
 0.910939E-013
 0.910939E-013
 0.910939E-013
 0.910939E-013
 0.910939E-013
 0.910939E-013
 0.910939E-013
 0.910939E-013
 0.910938E-013
 0.910938E-013
 0.910938E-013
 0.910938E-013
 0.910938E-013
 0.910938E-013
 0.910938E-013
 0.910938E-013
 0.910938E-013
 0.910938E-013
 0.910938E-013
 0.910938E-013
 0.910938E-013
 0.910938E-013
 0.910938E-013
 0.910938E-013
 0.910938E-013
 0.910938E-013
 0.910938E-013
 0.910938E-013
 0.910938E-013
 0.910938E-013
 0.910938E-013
 0.910938E-013
 0.910938E-013
 0.910938E-013
 0.910938E-013
 0.910938E-013
 0.910938E-013
 0.910938E-013
 0.910938E-013
 0.910938E-013
 0.910938E-013
 0.910938E-013
 0.910938E-013
 0.910940E-013
 0.910925E-013
 0.911010E-013
 0.910597E-013
 0.912267E-013
 0.906903E-013
 0.919866E-013
 0.920844E-013
 0.906446E-013
 0.912421E-013
 0.910557E-013
 0.911018E-013
 0.910924E-013
 0.910941E-013
 0.910938E-013
 0.910938E-013
 0.910938E-013
 0.910938E-013
 0.910938E-013
 0.910938E-013
 0.910938E-013
 0.910938E-013
 0.910938E-013
 0.910938E-013
 0.910938E-013
 0.910938E-013
 0.910938E-013
 0.910939E-013
 0.910939E-013
 0.910939E-013
 0.910939E-013
 0.910939E-013
 0.910939E-013
 0.910939E-013
 0.910939E-013
 0.910939E-013
 0.910939E-013
 0.910939E-013
 0.910939E-013
 0.910939E-013
 0.910939E-013
 0.910939E-013
 0.910939E-013
 0.910939E-013
 0.910940E-013
 0.910940E-013
 0.910940E-013
 0.910940E-013
 0.910940E-013
 0.910940E-013
 0.910940E-013
 0.910940E-013
 0.910941E-013
 0.910941E-013
 0.910941E-013
 0.910941E-013
 0.910941E-013
 0.910941E-013
 0.910941E-013
 0.910941E-013
 0.910942E-013
 0.910942E-013
 0.910942E-013
 0.910942E-013
 0.910942E-013
 0.910942E-013
 0.910942E-013
 0.910942E-013
 0.910942E-013
 0.910942E-013
 0.910942E-013
 0.910942E-013
 0.910942E-013
 0.910942E-013
 0.910942E-013
 0.910942E-013
 0.910942E-013
 0.910942E-013
 0.910942E-013
 0.910942E-013
 0.910942E-013
 0.910942E-013
 0.910941E-013
 0.910941E-013
 0.910941E-013
 0.910941E-013
 0.910941E-013
 0.910941E-013
 0.910941E-013
 0.910941E-013
 0.910940E-013
 0.910940E-013
 0.910940E-013
 0.910940E-013
 0.910940E-013
 0.910940E-013
 0.910940E-013
 0.910940E-013
 0.910939E-013
 0.910939E-013
 0.910939E-013
 0.910939E-013
 0.910939E-013
 0.910939E-013
 0.910939E-013
 0.910939E-013
 0.910939E-013
 0.910939E-013
 0.910939E-013
 0.910939E-013
 0.910939E-013
 0.910939E-013
 0.910939E-013
 0.910939E-013
 0.910939E-013
 0.910939E-013
 0.910938E-013
 0.910938E-013
 0.910938E-013
 0.910938E-013
 0.910938E-013
 0.910938E-013
 0.910938E-013
 0.910938E-013
 0.910938E-013
 0.910938E-013
 0.910938E-013
 0.910938E-013
 0.910941E-013
 0.910924E-013
 0.911018E-013
 0.910557E-013
 0.912420E-013
 0.906446E-013
 0.920843E-013
 0.921818E-013
 0.905990E-013
 0.912574E-013
 0.910518E-013
 0.911027E-013
 0.910923E-013
 0.910941E-013
 0.910938E-013
 0.910938E-013
 0.910938E-013
 0.910938E-013
 0.910938E-013
 0.910938E-013
 0.910938E-013
 0.910938E-013
 0.910938E-013
 0.910938E-013
 0.910938E-013
 0.910938E-013
 0.910938E-013
 0.910938E-013
 0.910938E-013
 0.910939E-013
 0.910939E-013
 0.910939E-013
 0.910939E-013
 0.910939E-013
 0.910939E-013
 0.910939E-013
 0.910939E-013
 0.910939E-013
 0.910939E-013
 0.910939E-013
 0.910939E-013
 0.910939E-013
 0.910939E-013
 0.910940E-013
 0.910940E-013
 0.910940E-013
 0.910940E-013
 0.910940E-013
 0.910940E-013
 0.910940E-013
 0.910940E-013
 0.910941E-013
 0.910941E-013
 0.910941E-013
 0.910941E-013
 0.910941E-013
 0.910941E-013
 0.910941E-013
 0.910942E-013
 0.910942E-013
 0.910942E-013
 0.910942E-013
 0.910942E-013
 0.910942E-013
 0.910942E-013
 0.910942E-013
 0.910942E-013
 0.910942E-013
 0.910943E-013
 0.910943E-013
 0.910943E-013
 0.910943E-013
 0.910943E-013
 0.910943E-013
 0.910942E-013
 0.910942E-013
 0.910942E-013
 0.910942E-013
 0.910942E-013
 0.910942E-013
 0.910942E-013
 0.910942E-013
 0.910942E-013
 0.910942E-013
 0.910941E-013
 0.910941E-013
 0.910941E-013
 0.910941E-013
 0.910941E-013
 0.910941E-013
 0.910941E-013
 0.910940E-013
 0.910940E-013
 0.910940E-013
 0.910940E-013
 0.910940E-013
 0.910940E-013
 0.910940E-013
 0.910940E-013
 0.910939E-013
 0.910939E-013
 0.910939E-013
 0.910939E-013
 0.910939E-013
 0.910939E-013
 0.910939E-013
 0.910939E-013
 0.910939E-013
 0.910939E-013
 0.910939E-013
 0.910939E-013
 0.910939E-013
 0.910939E-013
 0.910939E-013
 0.910938E-013
 0.910938E-013
 0.910938E-013
 0.910938E-013
 0.910938E-013
 0.910938E-013
 0.910938E-013
 0.910938E-013
 0.910938E-013
 0.910938E-013
 0.910938E-013
 0.910938E-013
 0.910938E-013
 0.910938E-013
 0.910941E-013
 0.910923E-013
 0.911027E-013
 0.910518E-013
 0.912573E-013
 0.905990E-013
 0.921818E-013
 0.922790E-013
 0.905535E-013
 0.912726E-013
 0.910478E-013
 0.911035E-013
 0.910921E-013
 0.910941E-013
 0.910938E-013
 0.910938E-013
 0.910938E-013
 0.910938E-013
 0.910938E-013
 0.910938E-013
 0.910938E-013
 0.910938E-013
 0.910938E-013
 0.910938E-013
 0.910938E-013
 0.910938E-013
 0.910938E-013
 0.910939E-013
 0.910939E-013
 0.910939E-013
 0.910939E-013
 0.910939E-013
 0.910939E-013
 0.910939E-013
 0.910939E-013
 0.910939E-013
 0.910939E-013
 0.910939E-013
 0.910939E-013
 0.910939E-013
 0.910939E-013
 0.910940E-013
 0.910940E-013
 0.910940E-013
 0.910940E-013
 0.910940E-013
 0.910940E-013
 0.910940E-013
 0.910941E-013
 0.910941E-013
 0.910941E-013
 0.910941E-013
 0.910941E-013
 0.910941E-013
 0.910942E-013
 0.910942E-013