# vtk DataFile Version 3.0
Solution data
ASCII
DATASET STRUCTURED_GRID
DIMENSIONS 128 128 1
POINTS 16384  double
      0.000004      0.000004      0.000000
      0.000012      0.000004      0.000000
      0.000020      0.000004      0.000000
      0.000027      0.000004      0.000000
      0.000035      0.000004      0.000000
      0.000043      0.000004      0.000000
      0.000051      0.000004      0.000000
      0.000059      0.000004      0.000000
      0.000066      0.000004      0.000000
      0.000074      0.000004      0.000000
      0.000082      0.000004      0.000000
      0.000090      0.000004      0.000000
      0.000098      0.000004      0.000000
      0.000105      0.000004      0.000000
      0.000113      0.000004      0.000000
      0.000121      0.000004      0.000000
      0.000129      0.000004      0.000000
      0.000137      0.000004      0.000000
      0.000145      0.000004      0.000000
      0.000152      0.000004      0.000000
      0.000160      0.000004      0.000000
      0.000168      0.000004      0.000000
      0.000176      0.000004      0.000000
      0.000184      0.000004      0.000000
      0.000191      0.000004      0.000000
      0.000199      0.000004      0.000000
      0.000207      0.000004      0.000000
      0.000215      0.000004      0.000000
      0.000223      0.000004      0.000000
      0.000230      0.000004      0.000000
      0.000238      0.000004      0.000000
      0.000246      0.000004      0.000000
      0.000254      0.000004      0.000000
      0.000262      0.000004      0.000000
      0.000270      0.000004      0.000000
      0.000277      0.000004      0.000000
      0.000285      0.000004      0.000000
      0.000293      0.000004      0.000000
      0.000301      0.000004      0.000000
      0.000309      0.000004      0.000000
      0.000316      0.000004      0.000000
      0.000324      0.000004      0.000000
      0.000332      0.000004      0.000000
      0.000340      0.000004      0.000000
      0.000348      0.000004      0.000000
      0.000355      0.000004      0.000000
      0.000363      0.000004      0.000000
      0.000371      0.000004      0.000000
      0.000379      0.000004      0.000000
      0.000387      0.000004      0.000000
      0.000395      0.000004      0.000000
      0.000402      0.000004      0.000000
      0.000410      0.000004      0.000000
      0.000418      0.000004      0.000000
      0.000426      0.000004      0.000000
      0.000434      0.000004      0.000000
      0.000441      0.000004      0.000000
      0.000449      0.000004      0.000000
      0.000457      0.000004      0.000000
      0.000465      0.000004      0.000000
      0.000473      0.000004      0.000000
      0.000480      0.000004      0.000000
      0.000488      0.000004      0.000000
      0.000496      0.000004      0.000000
      0.000504      0.000004      0.000000
      0.000512      0.000004      0.000000
      0.000520      0.000004      0.000000
      0.000527      0.000004      0.000000
      0.000535      0.000004      0.000000
      0.000543      0.000004      0.000000
      0.000551      0.000004      0.000000
      0.000559      0.000004      0.000000
      0.000566      0.000004      0.000000
      0.000574      0.000004      0.000000
      0.000582      0.000004      0.000000
      0.000590      0.000004      0.000000
      0.000598      0.000004      0.000000
      0.000605      0.000004      0.000000
      0.000613      0.000004      0.000000
      0.000621      0.000004      0.000000
      0.000629      0.000004      0.000000
      0.000637      0.000004      0.000000
      0.000645      0.000004      0.000000
      0.000652      0.000004      0.000000
      0.000660      0.000004      0.000000
      0.000668      0.000004      0.000000
      0.000676      0.000004      0.000000
      0.000684      0.000004      0.000000
      0.000691      0.000004      0.000000
      0.000699      0.000004      0.000000
      0.000707      0.000004      0.000000
      0.000715      0.000004      0.000000
      0.000723      0.000004      0.000000
      0.000730      0.000004      0.000000
      0.000738      0.000004      0.000000
      0.000746      0.000004      0.000000
      0.000754      0.000004      0.000000
      0.000762      0.000004      0.000000
      0.000770      0.000004      0.000000
      0.000777      0.000004      0.000000
      0.000785      0.000004      0.000000
      0.000793      0.000004      0.000000
      0.000801      0.000004      0.000000
      0.000809      0.000004      0.000000
      0.000816      0.000004      0.000000
      0.000824      0.000004      0.000000
      0.000832      0.000004      0.000000
      0.000840      0.000004      0.000000
      0.000848      0.000004      0.000000
      0.000855      0.000004      0.000000
      0.000863      0.000004      0.000000
      0.000871      0.000004      0.000000
      0.000879      0.000004      0.000000
      0.000887      0.000004      0.000000
      0.000895      0.000004      0.000000
      0.000902      0.000004      0.000000
      0.000910      0.000004      0.000000
      0.000918      0.000004      0.000000
      0.000926      0.000004      0.000000
      0.000934      0.000004      0.000000
      0.000941      0.000004      0.000000
      0.000949      0.000004      0.000000
      0.000957      0.000004      0.000000
      0.000965      0.000004      0.000000
      0.000973      0.000004      0.000000
      0.000980      0.000004      0.000000
      0.000988      0.000004      0.000000
      0.000996      0.000004      0.000000
      0.000004      0.000012      0.000000
      0.000012      0.000012      0.000000
      0.000020      0.000012      0.000000
      0.000027      0.000012      0.000000
      0.000035      0.000012      0.000000
      0.000043      0.000012      0.000000
      0.000051      0.000012      0.000000
      0.000059      0.000012      0.000000
      0.000066      0.000012      0.000000
      0.000074      0.000012      0.000000
      0.000082      0.000012      0.000000
      0.000090      0.000012      0.000000
      0.000098      0.000012      0.000000
      0.000105      0.000012      0.000000
      0.000113      0.000012      0.000000
      0.000121      0.000012      0.000000
      0.000129      0.000012      0.000000
      0.000137      0.000012      0.000000
      0.000145      0.000012      0.000000
      0.000152      0.000012      0.000000
      0.000160      0.000012      0.000000
      0.000168      0.000012      0.000000
      0.000176      0.000012      0.000000
      0.000184      0.000012      0.000000
      0.000191      0.000012      0.000000
      0.000199      0.000012      0.000000
      0.000207      0.000012      0.000000
      0.000215      0.000012      0.000000
      0.000223      0.000012      0.000000
      0.000230      0.000012      0.000000
      0.000238      0.000012      0.000000
      0.000246      0.000012      0.000000
      0.000254      0.000012      0.000000
      0.000262      0.000012      0.000000
      0.000270      0.000012      0.000000
      0.000277      0.000012      0.000000
      0.000285      0.000012      0.000000
      0.000293      0.000012      0.000000
      0.000301      0.000012      0.000000
      0.000309      0.000012      0.000000
      0.000316      0.000012      0.000000
      0.000324      0.000012      0.000000
      0.000332      0.000012      0.000000
      0.000340      0.000012      0.000000
      0.000348      0.000012      0.000000
      0.000355      0.000012      0.000000
      0.000363      0.000012      0.000000
      0.000371      0.000012      0.000000
      0.000379      0.000012      0.000000
      0.000387      0.000012      0.000000
      0.000395      0.000012      0.000000
      0.000402      0.000012      0.000000
      0.000410      0.000012      0.000000
      0.000418      0.000012      0.000000
      0.000426      0.000012      0.000000
      0.000434      0.000012      0.000000
      0.000441      0.000012      0.000000
      0.000449      0.000012      0.000000
      0.000457      0.000012      0.000000
      0.000465      0.000012      0.000000
      0.000473      0.000012      0.000000
      0.000480      0.000012      0.000000
      0.000488      0.000012      0.000000
      0.000496      0.000012      0.000000
      0.000504      0.000012      0.000000
      0.000512      0.000012      0.000000
      0.000520      0.000012      0.000000
      0.000527      0.000012      0.000000
      0.000535      0.000012      0.000000
      0.000543      0.000012      0.000000
      0.000551      0.000012      0.000000
      0.000559      0.000012      0.000000
      0.000566      0.000012      0.000000
      0.000574      0.000012      0.000000
      0.000582      0.000012      0.000000
      0.000590      0.000012      0.000000
      0.000598      0.000012      0.000000
      0.000605      0.000012      0.000000
      0.000613      0.000012      0.000000
      0.000621      0.000012      0.000000
      0.000629      0.000012      0.000000
      0.000637      0.000012      0.000000
      0.000645      0.000012      0.000000
      0.000652      0.000012      0.000000
      0.000660      0.000012      0.000000
      0.000668      0.000012      0.000000
      0.000676      0.000012      0.000000
      0.000684      0.000012      0.000000
      0.000691      0.000012      0.000000
      0.000699      0.000012      0.000000
      0.000707      0.000012      0.000000
      0.000715      0.000012      0.000000
      0.000723      0.000012      0.000000
      0.000730      0.000012      0.000000
      0.000738      0.000012      0.000000
      0.000746      0.000012      0.000000
      0.000754      0.000012      0.000000
      0.000762      0.000012      0.000000
      0.000770      0.000012      0.000000
      0.000777      0.000012      0.000000
      0.000785      0.000012      0.000000
[...]
POINT_DATA 16384
SCALARS rhoe double
LOOKUP_TABLE default
 0.913137E-013
 0.912690E-013
 0.913681E-013
 0.914492E-013
 0.915318E-013
 0.916141E-013
 0.916963E-013
 0.917785E-013
 0.918605E-013
 0.919424E-013
 0.920241E-013
 0.921058E-013
 0.921872E-013
 0.922685E-013
 0.923496E-013
 0.924305E-013
 0.925112E-013
 0.925917E-013
 0.926719E-013
 0.927517E-013
 0.928313E-013
 0.929105E-013
 0.929893E-013
 0.930677E-013
 0.931456E-013
 0.932229E-013
 0.932997E-013
 0.933759E-013
 0.934513E-013
 0.935261E-013
 0.936000E-013
 0.936730E-013
 0.937451E-013
 0.938162E-013
 0.938862E-013
 0.939550E-013
 0.940226E-013
 0.940888E-013
 0.941537E-013
 0.942170E-013
 0.942787E-013
 0.943388E-013
 0.943970E-013
 0.944535E-013
 0.945079E-013
 0.945603E-013
 0.946106E-013
 0.946587E-013
 0.947044E-013
 0.947478E-013
 0.947887E-013
 0.948270E-013
 0.948627E-013
 0.948957E-013
 0.949259E-013
 0.949533E-013
 0.949778E-013
 0.949993E-013
 0.950179E-013
 0.950334E-013
 0.950459E-013
 0.950553E-013
 0.950615E-013
 0.950647E-013
 0.950647E-013
 0.950615E-013
 0.950552E-013
 0.950459E-013
 0.950334E-013
 0.950178E-013
 0.949993E-013
 0.949777E-013
 0.949532E-013
 0.949258E-013
 0.948956E-013
 0.948626E-013
 0.948269E-013
 0.947885E-013
 0.947476E-013
 0.947043E-013
 0.946585E-013
 0.946105E-013
 0.945602E-013
 0.945077E-013
 0.944533E-013
 0.943969E-013
 0.943386E-013
 0.942785E-013
 0.942168E-013
 0.941535E-013
 0.940886E-013
 0.940224E-013
 0.939548E-013
 0.938860E-013
 0.938160E-013
 0.937449E-013
 0.936728E-013
 0.935998E-013
 0.935259E-013
 0.934511E-013
 0.933757E-013
 0.932995E-013
 0.932227E-013
 0.931454E-013
 0.930675E-013
 0.929891E-013
 0.929103E-013
 0.928311E-013
 0.927516E-013
 0.926717E-013
 0.925915E-013
 0.925111E-013
 0.924304E-013
 0.923495E-013
 0.922684E-013
 0.921871E-013
 0.921056E-013
 0.920240E-013
 0.919423E-013
 0.918604E-013
 0.917784E-013
 0.916963E-013
 0.916140E-013
 0.915317E-013
 0.914491E-013
 0.913681E-013
 0.912690E-013
 0.913137E-013
 0.912690E-013
 0.910404E-013
 0.910576E-013
 0.910427E-013
 0.910309E-013
 0.910188E-013
 0.910068E-013
 0.909948E-013
 0.909828E-013
 0.909709E-013
 0.909590E-013
 0.909471E-013
 0.909352E-013
 0.909234E-013
 0.909116E-013
 0.908999E-013
 0.908882E-013
 0.908765E-013
 0.908649E-013
 0.908533E-013
 0.908418E-013
 0.908304E-013
 0.908190E-013
 0.908077E-013
 0.907965E-013
 0.907853E-013
 0.907743E-013
 0.907633E-013
 0.907525E-013
 0.907417E-013
 0.907311E-013
 0.907206E-013
 0.907103E-013
 0.907001E-013
 0.906901E-013
 0.906803E-013
 0.906707E-013
 0.906612E-013
 0.906520E-013
 0.906430E-013
 0.906342E-013
 0.906256E-013
 0.906174E-013
 0.906094E-013
 0.906016E-013
 0.905942E-013
 0.905871E-013
 0.905803E-013
 0.905738E-013
 0.905677E-013
 0.905619E-013
 0.905565E-013
 0.905515E-013
 0.905468E-013
 0.905426E-013
 0.905387E-013
 0.905353E-013
 0.905322E-013
 0.905296E-013
 0.905274E-013
 0.905257E-013
 0.905244E-013
 0.905235E-013
 0.905230E-013
 0.905230E-013
 0.905235E-013
 0.905244E-013
 0.905257E-013
 0.905274E-013
 0.905296E-013
 0.905322E-013
 0.905353E-013
 0.905387E-013
 0.905426E-013
 0.905468E-013
 0.905515E-013
 0.905565E-013
 0.905619E-013
 0.905677E-013
 0.905738E-013
 0.905803E-013
 0.905871E-013
 0.905942E-013
 0.906016E-013
 0.906094E-013
 0.906174E-013
 0.906256E-013
 0.906342E-013
 0.906430E-013
 0.906520E-013
 0.906612E-013
 0.906707E-013
 0.906803E-013
 0.906901E-013
 0.907002E-013
 0.907103E-013
 0.907207E-013
 0.907311E-013
 0.907417E-013
 0.907525E-013
 0.907633E-013
 0.907743E-013
 0.907853E-013
 0.907965E-013
 0.908077E-013
 0.908190E-013
 0.908304E-013
 0.908418E-013
 0.908533E-013
 0.908649E-013
 0.908765E-013
 0.908882E-013
 0.908999E-013
 0.909116E-013
 0.909234E-013
 0.909352E-013
 0.909471E-013
 0.909590E-013
 0.909709E-013
 0.909828E-013
 0.909948E-013
 0.910068E-013
 0.910188E-013
 0.910309E-013
 0.910427E-013
 0.910576E-013
 0.910404E-013
 0.912690E-013
 0.913681E-013
 0.910576E-013
 0.911014E-013
 0.910985E-013
 0.911000E-013
 0.911012E-013
 0.911023E-013
 0.911035E-013
 0.911047E-013
 0.911059E-013
 0.911070E-013
 0.911082E-013
 0.911094E-013
 0.911105E-013
 0.911117E-013
 0.911128E-013
 0.911140E-013
 0.911151E-013
 0.911163E-013
 0.911174E-013
 0.911186E-013
 0.911197E-013
 0.911208E-013
 0.911220E-013
 0.911231E-013
 0.911242E-013
 0.911253E-013
 0.911264E-013
 0.911275E-013
 0.911285E-013
 0.911296E-013
 0.911307E-013
 0.911317E-013
 0.911327E-013
 0.911338E-013
 0.911348E-013
 0.911358E-013
 0.911367E-013
 0.911377E-013
 0.911386E-013
 0.911395E-013
 0.911404E-013
 0.911413E-013
 0.911421E-013
 0.911429E-013
 0.911437E-013
 0.911445E-013
 0.911452E-013
 0.911459E-013
 0.911466E-013
 0.911472E-013
 0.911478E-013
 0.911483E-013
 0.911488E-013
 0.911493E-013
 0.911497E-013
 0.911501E-013
 0.911504E-013
 0.911507E-013
 0.911509E-013
 0.911511E-013
 0.911513E-013
 0.911514E-013
 0.911514E-013
 0.911514E-013
 0.911514E-013
 0.911513E-013
 0.911511E-013
 0.911509E-013
 0.911507E-013
 0.911504E-013
 0.911501E-013
 0.911497E-013
 0.911493E-013
 0.911488E-013
 0.911483E-013
 0.911478E-013
 0.911472E-013
 0.911466E-013
 0.911459E-013
 0.911452E-013
 0.911445E-013
 0.911437E-013
 0.911429E-013
 0.911421E-013
 0.911413E-013
 0.911404E-013
 0.911395E-013
 0.911386E-013
 0.911377E-013
 0.911367E-013
 0.911358E-013
 0.911348E-013
 0.911338E-013
 0.911328E-013
 0.911317E-013
 0.911307E-013
 0.911296E-013
 0.911285E-013
 0.911275E-013
 0.911264E-013
 0.911253E-013
 0.911242E-013
 0.911231E-013
 0.911220E-013
 0.911208E-013
 0.911197E-013
 0.911186E-013
 0.911174E-013
 0.911163E-013
 0.911152E-013
 0.911140E-013
 0.911128E-013
 0.911117E-013
 0.911105E-013
 0.911094E-013
 0.911082E-013
 0.911070E-013
 0.911059E-013
 0.911047E-013
 0.911035E-013
 0.911023E-013
 0.911012E-013
 0.911000E-013
 0.910985E-013
 0.911014E-013
 0.910576E-013
 0.913681E-013
 0.914492E-013
 0.910427E-013
 0.910985E-013
 0.910931E-013
 0.910934E-013
 0.910933E-013
 0.910932E-013
 0.910931E-013
 0.910930E-013
 0.910930E-013
 0.910929E-013
 0.910928E-013
 0.910927E-013
 0.910926E-013
 0.910926E-013
 0.910925E-013
 0.910924E-013
 0.910923E-013
 0.910922E-013
 0.910922E-013
 0.910921E-013
 0.910920E-013
 0.910920E-013
 0.910919E-013
 0.910919E-013
 0.910918E-013
 0.910917E-013
 0.910917E-013
 0.910916E-013
 0.910916E-013
 0.910916E-013
 0.910915E-013
 0.910915E-013
 0.910915E-013
 0.910914E-013
 0.910914E-013
 0.910914E-013
 0.910914E-013
 0.910914E-013
 0.910914E-013
 0.910914E-013
 0.910914E-013
 0.910914E-013
 0.910914E-013
 0.910914E-013
 0.910915E-013
 0.910915E-013
 0.910915E-013
 0.910915E-013
 0.910916E-013
 0.910916E-013
 0.910916E-013
 0.910916E-013
 0.910917E-013
 0.910917E-013
 0.910917E-013
 0.910917E-013
 0.910918E-013
 0.910918E-013
 0.910918E-013
 0.910918E-013
 0.910918E-013
 0.910918E-013
 0.910918E-013
 0.910918E-013
 0.910918E-013
 0.910918E-013
 0.910918E-013
 0.910918E-013
 0.910918E-013
 0.910918E-013
 0.910917E-013
 0.910917E-013
 0.910917E-013
 0.910917E-013
 0.910916E-013
 0.910916E-013
 0.910916E-013
 0.910916E-013
 0.910915E-013
 0.910915E-013
 0.910915E-013
 0.910915E-013
 0.910914E-013
 0.910914E-013
 0.910914E-013
 0.910914E-013
 0.910914E-013
 0.910914E-013
 0.910914E-013
 0.910914E-013
 0.910914E-013
 0.910914E-013
 0.910915E-013
 0.910915E-013
 0.910915E-013
 0.910915E-013
 0.910916E-013
 0.910916E-013
 0.910916E-013
 0.910917E-013
 0.910917E-013
 0.910918E-013
 0.910919E-013
 0.910919E-013
 0.910920E-013
 0.910920E-013
 0.910921E-013
 0.910922E-013
 0.910922E-013
 0.910923E-013
 0.910924E-013
 0.910925E-013
 0.910926E-013
 0.910926E-013
 0.910927E-013
 0.910928E-013
 0.910929E-013
 0.910930E-013
 0.910930E-013
 0.910931E-013
 0.910932E-013
 0.910933E-013
 0.910934E-013
 0.910931E-013
 0.910985E-013
 0.910427E-013
 0.914491E-013
 0.915318E-013
 0.910309E-013
 0.911000E-013
 0.910934E-013
 0.910939E-013
 0.910939E-013
 0.910939E-013
 0.910939E-013
 0.910939E-013
 0.910939E-013
 0.910939E-013
 0.910939E-013
 0.910939E-013
 0.910939E-013
 0.910939E-013
 0.910940E-013
 0.910940E-013
 0.910940E-013
 0.910940E-013
 0.910940E-013
 0.910941E-013
 0.910941E-013
 0.910941E-013
 0.910941E-013
 0.910942E-013
 0.910942E-013
 0.910942E-013
 0.910943E-013
 0.910943E-013
 0.910944E-013
 0.910944E-013
 0.910945E-013
 0.910945E-013
 0.910946E-013
 0.910946E-013
 0.910947E-013
 0.910948E-013
 0.910949E-013
 0.910949E-013
 0.910950E-013
 0.910951E-013
 0.910952E-013
 0.910953E-013
 0.910954E-013
 0.910954E-013
 0.910955E-013
 0.910956E-013
 0.910957E-013
 0.910958E-013
 0.910959E-013
 0.910960E-013
 0.910961E-013
 0.910961E-013
 0.910962E-013
 0.910963E-013
 0.910963E-013
 0.910964E-013
 0.910965E-013
 0.910965E-013
 0.910965E-013
 0.910966E-013
 0.910966E-013
 0.910966E-013
 0.910966E-013
 0.910966E-013
 0.910966E-013
 0.910966E-013
 0.910966E-013
 0.910965E-013
 0.910965E-013
 0.910965E-013
 0.910964E-013
 0.910963E-013
 0.910963E-013
 0.910962E-013
 0.910961E-013
 0.910961E-013
 0.910960E-013
 0.910959E-013
 0.910958E-013
 0.910957E-013
 0.910956E-013
 0.910955E-013
 0.910954E-013
 0.910954E-013
 0.910953E-013
 0.910952E-013
 0.910951E-013
 0.910950E-013
 0.910949E-013
 0.910949E-013
 0.910948E-013
 0.910947E-013
 0.910946E-013
 0.910946E-013
 0.910945E-013
 0.910945E-013
 0.910944E-013
 0.910944E-013
 0.910943E-013
 0.910943E-013
 0.910942E-013
 0.910942E-013
 0.910942E-013
 0.910941E-013
 0.910941E-013
 0.910941E-013
 0.910941E-013
 0.910940E-013
 0.910940E-013
 0.910940E-013
 0.910940E-013
 0.910940E-013
 0.910940E-013
 0.910939E-013
 0.910939E-013
 0.910939E-013
 0.910939E-013
 0.910939E-013
 0.910939E-013
 0.910939E-013
 0.910939E-013
 0.910939E-013
 0.910939E-013
 0.910934E-013
 0.911000E-013
 0.910309E-013
 0.915317E-013
 0.916141E-013
 0.910188E-013
 0.911012E-013
 0.910933E-013
 0.910939E-013
 0.910938E-013
 0.910938E-013
 0.910938E-013
 0.910938E-013
 0.910938E-013
 0.910938E-013
 0.910939E-013
 0.910939E-013
 0.910939E-013
 0.910939E-013
 0.910939E-013
 0.910939E-013
 0.910939E-013
 0.910939E-013
 0.910939E-013
 0.910940E-013
 0.910940E-013
 0.910940E-013
 0.910940E-013
 0.910941E-013
 0.910941E-013
 0.910941E-013
 0.910942E-013
 0.910942E-013
 0.910943E-013
 0.910943E-013
 0.910944E-013
 0.910945E-013
 0.910945E-013
 0.910946E-013
 0.910947E-013
 0.910947E-013
 0.910948E-013
 0.910949E-013
 0.910950E-013
 0.910951E-013
 0.910952E-013
 0.910953E-013
 0.910954E-013
 0.910955E-013
 0.910956E-013
 0.910957E-013
 0.910958E-013
 0.910959E-013
 0.910960E-013
 0.910961E-013
 0.910962E-013
 0.910963E-013
 0.910964E-013
 0.910965E-013
 0.910965E-013
 0.910966E-013
 0.910967E-013
 0.910967E-013
 0.910968E-013
 0.910968E-013
 0.910968E-013
 0.910969E-013
 0.910969E-013
 0.910969E-013
 0.910969E-013
 0.910968E-013
 0.910968E-013
 0.910968E-013
 0.910967E-013
 0.910967E-013
 0.910966E-013
 0.910965E-013
 0.910965E-013
 0.910964E-013
 0.910963E-013
 0.910962E-013
 0.910961E-013
 0.910960E-013
 0.910959E-013
 0.910958E-013
 0.910957E-013
 0.910956E-013
 0.910955E-013
 0.910954E-013
 0.910953E-013
 0.910952E-013
 0.910951E-013
 0.910950E-013
 0.910949E-013
 0.910948E-013
 0.910947E-013
 0.910947E-013
 0.910946E-013
 0.910945E-013
 0.910945E-013
 0.910944E-013
 0.910943E-013
 0.910943E-013
 0.910942E-013
 0.910942E-013
 0.910941E-013
 0.910941E-013
 0.910941E-013
 0.910940E-013
 0.910940E-013
 0.910940E-013
 0.910940E-013
 0.910939E-013
 0.910939E-013
 0.910939E-013
 0.910939E-013
 0.910939E-013
 0.910939E-013
 0.910939E-013
 0.910939E-013
 0.910939E-013
 0.910939E-013
 0.910939E-013
 0.910938E-013
 0.910938E-013
 0.910938E-013
 0.910938E-013
 0.910939E-013
 0.910933E-013
 0.911012E-013
 0.910188E-013
 0.916140E-013
 0.916963E-013
 0.910068E-013
 0.911023E-013
 0.910932E-013
 0.910939E-013
 0.910938E-013
 0.910938E-013
 0.910938E-013
 0.910938E-013
 0.910939E-013
 0.910939E-013
 0.910939E-013
 0.910939E-013
 0.910939E-013
 0.910939E-013
 0.910939E-013
 0.910939E-013
 0.910939E-013
 0.910940E-013
 0.910940E-013
 0.910940E-013
 0.910940E-013
 0.910941E-013
 0.910941E-013
 0.910941E-013
 0.910942E-013
 0.910942E-013
 0.910943E-013
 0.910943E-013
 0.910944E-013
 0.910944E-013
 0.910945E-013
 0.910946E-013
 0.910947E-013
 0.910947E-013
 0.910948E-013
 0.910949E-013
 0.910950E-013
 0.910951E-013
 0.910952E-013
 0.910954E-013
 0.910955E-013
 0.910956E-013
 0.910957E-013
 0.910958E-013
 0.910960E-013
 0.910961E-013
 0.910962E-013
 0.910963E-013
 0.910965E-013
 0.910966E-013
 0.910967E-013
 0.910968E-013
 0.910969E-013
 0.910970E-013
 0.910971E-013
 0.910972E-013
 0.910972E-013
 0.910973E-013
 0.910974E-013
 0.910974E-013
 0.910974E-013
 0.910975E-013
 0.910975E-013
 0.910975E-013
 0.910975E-013
 0.910974E-013
 0.910974E-013
 0.910974E-013
 0.910973E-013
 0.910972E-013
 0.910972E-013
 0.910971E-013
 0.910970E-013
 0.910969E-013
 0.910968E-013
 0.910967E-013
 0.910966E-013
 0.910965E-013
 0.910963E-013
 0.910962E-013
 0.910961E-013
 0.910960E-013
 0.910958E-013
 0.910957E-013
 0.910956E-013
 0.910955E-013
 0.910954E-013
 0.910953E-013
 0.910951E-013
 0.910950E-013
 0.910949E-013
 0.910948E-013
 0.910948E-013
 0.910947E-013
 0.910946E-013
 0.910945E-013
 0.910944E-013
 0.910944E-013
 0.910943E-013
 0.910943E-013
 0.910942E-013
 0.910942E-013
 0.910941E-013
 0.910941E-013
 0.910941E-013
 0.910940E-013
 0.910940E-013
 0.910940E-013
 0.910940E-013
 0.910939E-013
 0.910939E-013
 0.910939E-013
 0.910939E-013
 0.910939E-013
 0.910939E-013
 0.910939E-013
 0.910939E-013
 0.910939E-013
 0.910939E-013
 0.910939E-013
 0.910938E-013
 0.910938E-013
 0.910939E-013
 0.910932E-013
 0.911023E-013
 0.910068E-013
 0.916963E-013
 0.917785E-013
 0.909948E-013
 0.911035E-013
 0.910931E-013
 0.910939E-013
 0.910938E-013
 0.910938E-013
 0.910938E-013
 0.910939E-013
 0.910939E-013
 0.910939E-013
 0.910939E-013
 0.910939E-013
 0.910939E-013
 0.910939E-013
 0.910939E-013
 0.910939E-013
 0.910940E-013
 0.910940E-013
 0.910940E-013
 0.910940E-013
 0.910941E-013
 0.910941E-013
 0.910941E-013
 0.910942E-013
 0.910942E-013
 0.910943E-013
 0.910943E-013
 0.910944E-013
 0.910945E-013
 0.910946E-013
 0.910946E-013
 0.910947E-013
 0.910948E-013
 0.910949E-013
 0.910950E-013
 0.910951E-013
 0.910953E-013
 0.910954E-013
 0.910955E-013
 0.910957E-013
 0.910958E-013
 0.910959E-013
 0.910961E-013
 0.910962E-013
 0.910964E-013
 0.910965E-013
 0.910967E-013
 0.910968E-013
 0.910970E-013
 0.910971E-013
 0.910972E-013
 0.910974E-013
 0.910975E-013
 0.910976E-013
 0.910977E-013
 0.910978E-013
 0.910979E-013
 0.910980E-013
 0.910980E-013
 0.910981E-013
 0.910981E-013
 0.910982E-013
 0.910982E-013
 0.910982E-013
 0.910982E-013
 0.910981E-013
 0.910981E-013
 0.910980E-013
 0.910980E-013
 0.910979E-013
 0.910978E-013
 0.910977E-013
 0.910976E-013
 0.910975E-013
 0.910974E-013
 0.910972E-013
 0.910971E-013
 0.910970E-013
 0.910968E-013
 0.910967E-013
 0.910965E-013
 0.910964E-013
 0.910962E-013
 0.910961E-013
 0.910959E-013
 0.910958E-013
 0.910957E-013
 0.910955E-013
 0.910954E-013
 0.910953E-013
 0.910952E-013
 0.910950E-013
 0.910949E-013
 0.910948E-013
 0.910947E-013
 0.910946E-013
 0.910946E-013
 0.910945E-013
 0.910944E-013
 0.910944E-013
 0.910943E-013
 0.910942E-013
 0.910942E-013
 0.910941E-013
 0.910941E-013
 0.910941E-013
 0.910940E-013
 0.910940E-013
 0.910940E-013
 0.910940E-013
 0.910939E-013
 0.910939E-013
 0.910939E-013
 0.910939E-013
 0.910939E-013
 0.910939E-013
 0.910939E-013
 0.910939E-013
 0.910939E-013
 0.910939E-013
 0.910939E-013
 0.910938E-013
 0.910939E-013
 0.910931E-013
 0.911035E-013
 0.909948E-013
 0.917784E-013
 0.918605E-013
 0.909828E-013
 0.911047E-013
 0.910930E-013
 0.910939E-013
 0.910938E-013
 0.910938E-013
 0.910939E-013
 0.910939E-013
 0.910939E-013
 0.910939E-013
 0.910939E-013
 0.910939E-013
 0.910939E-013
 0.910939E-013
 0.910939E-013
 0.910940E-013
 0.910940E-013
 0.910940E-013
 0.910940E-013
 0.910941E-013
 0.910941E-013
 0.910942E-013
 0.910942E-013
 0.910943E-013
 0.910943E-013
 0.910944E-013
 0.910944E-013
 0.910945E-013
 0.910946E-013
 0.910947E-013
 0.910948E-013
 0.910949E-013
 0.910950E-013
 0.910951E-013
 0.910953E-013
 0.910954E-013
 0.910955E-013
 0.910957E-013
 0.910958E-013
 0.910960E-013
 0.910962E-013
 0.910963E-013
 0.910965E-013
 0.910967E-013
 0.910969E-013
 0.910970E-013
 0.910972E-013
 0.910974E-013
 0.910975E-013
 0.910977E-013
 0.910979E-013
 0.910980E-013
 0.910982E-013
 0.910983E-013
 0.910984E-013
 0.910986E-013
 0.910987E-013
 0.910988E-013
 0.910988E-013
 0.910989E-013
 0.910989E-013
 0.910990E-013
 0.910990E-013
 0.910990E-013
 0.910990E-013
 0.910989E-013
 0.910989E-013
 0.910988E-013
 0.910988E-013
 0.910987E-013
 0.910986E-013
 0.910984E-013
 0.910983E-013
 0.910982E-013
 0.910980E-013
 0.910979E-013
 0.910977E-013
 0.910976E-013
 0.910974E-013
 0.910972E-013
 0.910970E-013
 0.910969E-013
 0.910967E-013
 0.910965E-013
 0.910963E-013
 0.910962E-013
 0.910960E-013
 0.910958E-013
 0.910957E-013
 0.910955E-013
 0.910954E-013
 0.910953E-013
 0.910951E-013
 0.910950E-013
 0.910949E-013
 0.910948E-013
 0.910947E-013
 0.910946E-013
 0.910945E-013
 0.910945E-013
 0.910944E-013
 0.910943E-013
 0.910943E-013
 0.910942E-013
 0.910942E-013
 0.910941E-013
 0.910941E-013
 0.910940E-013
 0.910940E-013
 0.910940E-013
 0.910940E-013
 0.910939E-013
 0.910939E-013
 0.910939E-013
 0.910939E-013
 0.910939E-013
 0.910939E-013
 0.910939E-013
 0.910939E-013
 0.910939E-013
 0.910939E-013
 0.910939E-013
 0.910939E-013
 0.910931E-013
 0.911047E-013
 0.909828E-013
 0.918604E-013
 0.919424E-013
 0.909709E-013
 0.911059E-013
 0.910930E-013
 0.910939E-013
 0.910938E-013
 0.910939E-013
 0.910939E-013
 0.910939E-013
 0.910939E-013
 0.910939E-013
 0.910939E-013
 0.910939E-013
 0.910939E-013
 0.910939E-013
 0.910940E-013
 0.910940E-013
 0.910940E-013
 0.910940E-013
 0.910941E-013
 0.910941E-013
 0.910942E-013
 0.910942E-013
 0.910943E-013
 0.910943E-013
 0.910944E-013
 0.910945E-013
 0.910946E-013
 0.910947E-013
 0.910948E-013
 0.910949E-013
 0.910950E-013
 0.910951E-013
 0.910952E-013
 0.910954E-013
 0.910955E-013
 0.910957E-013
 0.910959E-013
 0.910960E-013
 0.910962E-013
 0.910964E-013
 0.910966E-013
 0.910968E-013
 0.910970E-013
 0.910972E-013
 0.910974E-013
 0.910976E-013
 0.910978E-013
 0.910980E-013
 0.910982E-013
 0.910984E-013
 0.910986E-013
 0.910988E-013
 0.910990E-013
 0.910991E-013
 0.910993E-013
 0.910994E-013
 0.910996E-013
 0.910997E-013
 0.910998E-013
 0.910998E-013
 0.910999E-013
 0.910999E-013
 0.910999E-013
 0.910999E-013
 0.910999E-013
 0.910999E-013
 0.910998E-013
 0.910998E-013
 0.910997E-013
 0.910996E-013
 0.910994E-013
 0.910993E-013
 0.910991E-013
 0.910990E-013
 0.910988E-013
 0.910986E-013
 0.910984E-013
 0.910982E-013
 0.910980E-013
 0.910978E-013
 0.910976E-013
 0.910974E-013
 0.910972E-013
 0.910970E-013
 0.910968E-013
 0.910966E-013
 0.910964E-013
 0.910962E-013
 0.910960E-013
 0.910959E-013
 0.910957E-013
 0.910955E-013
 0.910954E-013
 0.910952E-013
 0.910951E-013
 0.910950E-013
 0.910949E-013
 0.910948E-013
 0.910947E-013
 0.910946E-013
 0.910945E-013
 0.910944E-013
 0.910943E-013
 0.910943E-013
 0.910942E-013
 0.910942E-013
 0.910941E-013
 0.910941E-013
 0.910940E-013
 0.910940E-013
 0.910940E-013
 0.910940E-013
 0.910939E-013
 0.910939E-013
 0.910939E-013
 0.910939E-013
 0.910939E-013
 0.910939E-013
 0.910939E-013
 0.910939E-013
 0.910939E-013
 0.910939E-013
 0.910939E-013
 0.910930E-013
 0.911059E-013
 0.909709E-013
 0.919423E-013
 0.920241E-013
 0.909590E-013
 0.911070E-013
 0.910929E-013
 0.910939E-013
 0.910938E-013
 0.910939E-013
 0.910939E-013
 0.910939E-013
 0.910939E-013
 0.910939E-013
 0.910939E-013
 0.910939E-013
 0.910939E-013
 0.910940E-013
 0.910940E-013
 0.910940E-013
 0.910940E-013
 0.910941E-013
 0.910941E-013
 0.910942E-013
 0.910942E-013
 0.910943E-013
 0.910944E-013
 0.910944E-013
 0.910945E-013
 0.910946E-013
 0.910947E-013
 0.910948E-013
 0.910949E-013
 0.910951E-013
 0.910952E-013
 0.910953E-013
 0.910955E-013
 0.910957E-013
 0.910958E-013
 0.910960E-013
 0.910962E-013
 0.910964E-013
 0.910966E-013
 0.910969E-013
 0.910971E-013
 0.910973E-013
 0.910976E-013
 0.910978E-013
 0.910981E-013
 0.910983E-013
 0.910985E-013
 0.910988E-013