# vtk DataFile Version 3.0
Solution data
ASCII
DATASET STRUCTURED_GRID
DIMENSIONS 128 128 1
POINTS 16384  double
      0.000004      0.000004      0.000000
      0.000012      0.000004      0.000000
      0.000020      0.000004      0.000000
      0.000027      0.000004      0.000000
      0.000035      0.000004      0.000000
      0.000043      0.000004      0.000000
      0.000051      0.000004      0.000000
      0.000059      0.000004      0.000000
      0.000066      0.000004      0.000000
      0.000074      0.000004      0.000000
      0.000082      0.000004      0.000000
      0.000090      0.000004      0.000000
      0.000098      0.000004      0.000000
      0.000105      0.000004      0.000000
      0.000113      0.000004      0.000000
      0.000121      0.000004      0.000000
      0.000129      0.000004      0.000000
      0.000137      0.000004      0.000000
      0.000145      0.000004      0.000000
      0.000152      0.000004      0.000000
      0.000160      0.000004      0.000000
      0.000168      0.000004      0.000000
      0.000176      0.000004      0.000000
      0.000184      0.000004      0.000000
      0.000191      0.000004      0.000000
      0.000199      0.000004      0.000000
      0.000207      0.000004      0.000000
      0.000215      0.000004      0.000000
      0.000223      0.000004      0.000000
      0.000230      0.000004      0.000000
      0.000238      0.000004      0.000000
      0.000246      0.000004      0.000000
      0.000254      0.000004      0.000000
      0.000262      0.000004      0.000000
      0.000270      0.000004      0.000000
      0.000277      0.000004      0.000000
      0.000285      0.000004      0.000000
      0.000293      0.000004      0.000000
      0.000301      0.000004      0.000000
      0.000309      0.000004      0.000000
      0.000316      0.000004      0.000000
      0.000324      0.000004      0.000000
      0.000332      0.000004      0.000000
      0.000340      0.000004      0.000000
      0.000348      0.000004      0.000000
      0.000355      0.000004      0.000000
      0.000363      0.000004      0.000000
      0.000371      0.000004      0.000000
      0.000379      0.000004      0.000000
      0.000387      0.000004      0.000000
      0.000395      0.000004      0.000000
      0.000402      0.000004      0.000000
      0.000410      0.000004      0.000000
      0.000418      0.000004      0.000000
      0.000426      0.000004      0.000000
      0.000434      0.000004      0.000000
      0.000441      0.000004      0.000000
      0.000449      0.000004      0.000000
      0.000457      0.000004      0.000000
      0.000465      0.000004      0.000000
      0.000473      0.000004      0.000000
      0.000480      0.000004      0.000000
      0.000488      0.000004      0.000000
      0.000496      0.000004      0.000000
      0.000504      0.000004      0.000000
      0.000512      0.000004      0.000000
      0.000520      0.000004      0.000000
      0.000527      0.000004      0.000000
      0.000535      0.000004      0.000000
      0.000543      0.000004      0.000000
      0.000551      0.000004      0.000000
      0.000559      0.000004      0.000000
      0.000566      0.000004      0.000000
      0.000574      0.000004      0.000000
      0.000582      0.000004      0.000000
      0.000590      0.000004      0.000000
      0.000598      0.000004      0.000000
      0.000605      0.000004      0.000000
      0.000613      0.000004      0.000000
      0.000621      0.000004      0.000000
      0.000629      0.000004      0.000000
      0.000637      0.000004      0.000000
      0.000645      0.000004      0.000000
      0.000652      0.000004      0.000000
      0.000660      0.000004      0.000000
      0.000668      0.000004      0.000000
      0.000676      0.000004      0.000000
      0.000684      0.000004      0.000000
      0.000691      0.000004      0.000000
      0.000699      0.000004      0.000000
      0.000707      0.000004      0.000000
      0.000715      0.000004      0.000000
      0.000723      0.000004      0.000000
      0.000730      0.000004      0.000000
      0.000738      0.000004      0.000000
      0.000746      0.000004      0.000000
      0.000754      0.000004      0.000000
      0.000762      0.000004      0.000000
      0.000770      0.000004      0.000000
      0.000777      0.000004      0.000000
      0.000785      0.000004      0.000000
      0.000793      0.000004      0.000000
      0.000801      0.000004      0.000000
      0.000809      0.000004      0.000000
      0.000816      0.000004      0.000000
      0.000824      0.000004      0.000000
      0.000832      0.000004      0.000000
      0.000840      0.000004      0.000000
      0.000848      0.000004      0.000000
      0.000855      0.000004      0.000000
      0.000863      0.000004      0.000000
      0.000871      0.000004      0.000000
      0.000879      0.000004      0.000000
      0.000887      0.000004      0.000000
      0.000895      0.000004      0.000000
      0.000902      0.000004      0.000000
      0.000910      0.000004      0.000000
      0.000918      0.000004      0.000000
      0.000926      0.000004      0.000000
      0.000934      0.000004      0.000000
      0.000941      0.000004      0.000000
      0.000949      0.000004      0.000000
      0.000957      0.000004      0.000000
      0.000965      0.000004      0.000000
      0.000973      0.000004      0.000000
      0.000980      0.000004      0.000000
      0.000988      0.000004      0.000000
      0.000996      0.000004      0.000000
      0.000004      0.000012      0.000000
      0.000012      0.000012      0.000000
      0.000020      0.000012      0.000000
      0.000027      0.000012      0.000000
      0.000035      0.000012      0.000000
      0.000043      0.000012      0.000000
      0.000051      0.000012      0.000000
      0.000059      0.000012      0.000000
      0.000066      0.000012      0.000000
      0.000074      0.000012      0.000000
      0.000082      0.000012      0.000000
      0.000090      0.000012      0.000000
      0.000098      0.000012      0.000000
      0.000105      0.000012      0.000000
      0.000113      0.000012      0.000000
      0.000121      0.000012      0.000000
      0.000129      0.000012      0.000000
      0.000137      0.000012      0.000000
      0.000145      0.000012      0.000000
      0.000152      0.000012      0.000000
      0.000160      0.000012      0.000000
      0.000168      0.000012      0.000000
      0.000176      0.000012      0.000000
      0.000184      0.000012      0.000000
      0.000191      0.000012      0.000000
      0.000199      0.000012      0.000000
      0.000207      0.000012      0.000000
      0.000215      0.000012      0.000000
      0.000223      0.000012      0.000000
      0.000230      0.000012      0.000000
      0.000238      0.000012      0.000000
      0.000246      0.000012      0.000000
      0.000254      0.000012      0.000000
      0.000262      0.000012      0.000000
      0.000270      0.000012      0.000000
      0.000277      0.000012      0.000000
      0.000285      0.000012      0.000000
      0.000293      0.000012      0.000000
      0.000301      0.000012      0.000000
      0.000309      0.000012      0.000000
      0.000316      0.000012      0.000000
      0.000324      0.000012      0.000000
      0.000332      0.000012      0.000000
      0.000340      0.000012      0.000000
      0.000348      0.000012      0.000000
      0.000355      0.000012      0.000000
      0.000363      0.000012      0.000000
      0.000371      0.000012      0.000000
      0.000379      0.000012      0.000000
      0.000387      0.000012      0.000000
      0.000395      0.000012      0.000000
      0.000402      0.000012      0.000000
      0.000410      0.000012      0.000000
      0.000418      0.000012      0.000000
      0.000426      0.000012      0.000000
      0.000434      0.000012      0.000000
      0.000441      0.000012      0.000000
      0.000449      0.000012      0.000000
      0.000457      0.000012      0.000000
      0.000465      0.000012      0.000000
      0.000473      0.000012      0.000000
      0.000480      0.000012      0.000000
      0.000488      0.000012      0.000000
      0.000496      0.000012      0.000000
      0.000504      0.000012      0.000000
      0.000512      0.000012      0.000000
      0.000520      0.000012      0.000000
      0.000527      0.000012      0.000000
      0.000535      0.000012      0.000000
      0.000543      0.000012      0.000000
      0.000551      0.000012      0.000000
      0.000559      0.000012      0.000000
      0.000566      0.000012      0.000000
      0.000574      0.000012      0.000000
      0.000582      0.000012      0.000000
      0.000590      0.000012      0.000000
      0.000598      0.000012      0.000000
      0.000605      0.000012      0.000000
      0.000613      0.000012      0.000000
      0.000621      0.000012      0.000000
      0.000629      0.000012      0.000000
      0.000637      0.000012      0.000000
      0.000645      0.000012      0.000000
      0.000652      0.000012      0.000000
      0.000660      0.000012      0.000000
      0.000668      0.000012      0.000000
      0.000676      0.000012      0.000000
      0.000684      0.000012      0.000000
      0.000691      0.000012      0.000000
      0.000699      0.000012      0.000000
      0.000707      0.000012      0.000000
      0.000715      0.000012      0.000000
      0.000723      0.000012      0.000000
      0.000730      0.000012      0.000000
      0.000738      0.000012      0.000000
      0.000746      0.000012      0.000000
      0.000754      0.000012      0.000000
      0.000762      0.000012      0.000000
      0.000770      0.000012      0.000000
      0.000777      0.000012      0.000000
      0.000785      0.000012      0.000000
[...]
POINT_DATA 16384
SCALARS rhoe double
LOOKUP_TABLE default
 0.916657E-013
 0.912165E-013
 0.915510E-013
 0.915282E-013
 0.916460E-013
 0.917152E-013
 0.917988E-013
 0.918783E-013
 0.919584E-013
 0.920382E-013
 0.921177E-013
 0.921970E-013
 0.922759E-013
 0.923546E-013
 0.924330E-013
 0.925110E-013
 0.925887E-013
 0.926660E-013
 0.927429E-013
 0.928194E-013
 0.928954E-013
 0.929710E-013
 0.930459E-013
 0.931204E-013
 0.931942E-013
 0.932673E-013
 0.933398E-013
 0.934115E-013
 0.934825E-013
 0.935526E-013
 0.936218E-013
 0.936900E-013
 0.937572E-013
 0.938233E-013
 0.938883E-013
 0.939521E-013
 0.940146E-013
 0.940757E-013
 0.941355E-013
 0.941937E-013
 0.942503E-013
 0.943053E-013
 0.943586E-013
 0.944101E-013
 0.944598E-013
 0.945075E-013
 0.945532E-013
 0.945968E-013
 0.946382E-013
 0.946774E-013
 0.947144E-013
 0.947490E-013
 0.947811E-013
 0.948108E-013
 0.948380E-013
 0.948627E-013
 0.948847E-013
 0.949040E-013
 0.949206E-013
 0.949346E-013
 0.949457E-013
 0.949541E-013
 0.949598E-013
 0.949626E-013
 0.949626E-013
 0.949598E-013
 0.949541E-013
 0.949457E-013
 0.949346E-013
 0.949207E-013
 0.949040E-013
 0.948847E-013
 0.948627E-013
 0.948380E-013
 0.948109E-013
 0.947811E-013
 0.947490E-013
 0.947144E-013
 0.946774E-013
 0.946382E-013
 0.945968E-013
 0.945532E-013
 0.945075E-013
 0.944598E-013
 0.944102E-013
 0.943587E-013
 0.943054E-013
 0.942503E-013
 0.941937E-013
 0.941355E-013
 0.940758E-013
 0.940146E-013
 0.939521E-013
 0.938884E-013
 0.938234E-013
 0.937572E-013
 0.936900E-013
 0.936218E-013
 0.935526E-013
 0.934825E-013
 0.934116E-013
 0.933398E-013
 0.932674E-013
 0.931942E-013
 0.931204E-013
 0.930460E-013
 0.929710E-013
 0.928955E-013
 0.928194E-013
 0.927430E-013
 0.926660E-013
 0.925887E-013
 0.925110E-013
 0.924330E-013
 0.923546E-013
 0.922760E-013
 0.921970E-013
 0.921177E-013
 0.920382E-013
 0.919585E-013
 0.918783E-013
 0.917988E-013
 0.917152E-013
 0.916460E-013
 0.915282E-013
 0.915510E-013
 0.912165E-013
 0.916657E-013
 0.912165E-013
 0.907600E-013
 0.909420E-013
 0.907757E-013
 0.907656E-013
 0.906967E-013
 0.906470E-013
 0.905921E-013
 0.905387E-013
 0.904851E-013
 0.904318E-013
 0.903787E-013
 0.903257E-013
 0.902730E-013
 0.902204E-013
 0.901681E-013
 0.901160E-013
 0.900642E-013
 0.900126E-013
 0.899613E-013
 0.899103E-013
 0.898597E-013
 0.898094E-013
 0.897594E-013
 0.897099E-013
 0.896608E-013
 0.896122E-013
 0.895641E-013
 0.895164E-013
 0.894694E-013
 0.894230E-013
 0.893771E-013
 0.893320E-013
 0.892876E-013
 0.892440E-013
 0.892011E-013
 0.891591E-013
 0.891181E-013
 0.890779E-013
 0.890388E-013
 0.890007E-013
 0.889638E-013
 0.889279E-013
 0.888933E-013
 0.888599E-013
 0.888279E-013
 0.887971E-013
 0.887678E-013
 0.887399E-013
 0.887135E-013
 0.886887E-013
 0.886654E-013
 0.886438E-013
 0.886238E-013
 0.886055E-013
 0.885889E-013
 0.885741E-013
 0.885611E-013
 0.885499E-013
 0.885405E-013
 0.885330E-013
 0.885273E-013
 0.885235E-013
 0.885217E-013
 0.885217E-013
 0.885235E-013
 0.885273E-013
 0.885330E-013
 0.885405E-013
 0.885499E-013
 0.885611E-013
 0.885741E-013
 0.885889E-013
 0.886055E-013
 0.886238E-013
 0.886438E-013
 0.886654E-013
 0.886887E-013
 0.887135E-013
 0.887399E-013
 0.887678E-013
 0.887971E-013
 0.888279E-013
 0.888599E-013
 0.888933E-013
 0.889279E-013
 0.889638E-013
 0.890007E-013
 0.890388E-013
 0.890779E-013
 0.891181E-013
 0.891591E-013
 0.892011E-013
 0.892440E-013
 0.892876E-013
 0.893320E-013
 0.893772E-013
 0.894230E-013
 0.894694E-013
 0.895165E-013
 0.895641E-013
 0.896122E-013
 0.896608E-013
 0.897099E-013
 0.897594E-013
 0.898094E-013
 0.898597E-013
 0.899103E-013
 0.899613E-013
 0.900126E-013
 0.900642E-013
 0.901160E-013
 0.901681E-013
 0.902204E-013
 0.902730E-013
 0.903257E-013
 0.903787E-013
 0.904318E-013
 0.904851E-013
 0.905387E-013
 0.905921E-013
 0.906470E-013
 0.906967E-013
 0.907656E-013
 0.907757E-013
 0.909420E-013
 0.907600E-013
 0.912165E-013
 0.915510E-013
 0.909420E-013
 0.913233E-013
 0.911893E-013
 0.912812E-013
 0.912885E-013
 0.913231E-013
 0.913498E-013
 0.913784E-013
 0.914065E-013
 0.914346E-013
 0.914625E-013
 0.914904E-013
 0.915181E-013
 0.915457E-013
 0.915733E-013
 0.916006E-013
 0.916279E-013
 0.916550E-013
 0.916820E-013
 0.917087E-013
 0.917354E-013
 0.917618E-013
 0.917881E-013
 0.918141E-013
 0.918399E-013
 0.918655E-013
 0.918908E-013
 0.919158E-013
 0.919405E-013
 0.919649E-013
 0.919890E-013
 0.920128E-013
 0.920361E-013
 0.920591E-013
 0.920816E-013
 0.921037E-013
 0.921253E-013
 0.921464E-013
 0.921670E-013
 0.921870E-013
 0.922064E-013
 0.922253E-013
 0.922435E-013
 0.922611E-013
 0.922779E-013
 0.922941E-013
 0.923095E-013
 0.923242E-013
 0.923381E-013
 0.923512E-013
 0.923634E-013
 0.923748E-013
 0.923853E-013
 0.923949E-013
 0.924037E-013
 0.924115E-013
 0.924183E-013
 0.924242E-013
 0.924291E-013
 0.924331E-013
 0.924361E-013
 0.924381E-013
 0.924391E-013
 0.924391E-013
 0.924381E-013
 0.924361E-013
 0.924331E-013
 0.924291E-013
 0.924242E-013
 0.924183E-013
 0.924115E-013
 0.924037E-013
 0.923949E-013
 0.923853E-013
 0.923748E-013
 0.923634E-013
 0.923511E-013
 0.923381E-013
 0.923242E-013
 0.923095E-013
 0.922941E-013
 0.922779E-013
 0.922610E-013
 0.922435E-013
 0.922253E-013
 0.922064E-013
 0.921870E-013
 0.921669E-013
 0.921464E-013
 0.921253E-013
 0.921037E-013
 0.920816E-013
 0.920591E-013
 0.920361E-013
 0.920127E-013
 0.919890E-013
 0.919649E-013
 0.919405E-013
 0.919158E-013
 0.918907E-013
 0.918654E-013
 0.918399E-013
 0.918141E-013
 0.917880E-013
 0.917618E-013
 0.917354E-013
 0.917087E-013
 0.916819E-013
 0.916550E-013
 0.916279E-013
 0.916006E-013
 0.915732E-013
 0.915457E-013
 0.915181E-013
 0.914904E-013
 0.914625E-013
 0.914346E-013
 0.914065E-013
 0.913784E-013
 0.913498E-013
 0.913231E-013
 0.912884E-013
 0.912812E-013
 0.911893E-013
 0.913233E-013
 0.909420E-013
 0.915510E-013
 0.915282E-013
 0.907757E-013
 0.911893E-013
 0.909761E-013
 0.910433E-013
 0.910043E-013
 0.910000E-013
 0.909858E-013
 0.909742E-013
 0.909620E-013
 0.909500E-013
 0.909380E-013
 0.909261E-013
 0.909142E-013
 0.909024E-013
 0.908906E-013
 0.908788E-013
 0.908672E-013
 0.908556E-013
 0.908440E-013
 0.908325E-013
 0.908211E-013
 0.908098E-013
 0.907985E-013
 0.907874E-013
 0.907763E-013
 0.907654E-013
 0.907545E-013
 0.907438E-013
 0.907332E-013
 0.907227E-013
 0.907124E-013
 0.907023E-013
 0.906922E-013
 0.906824E-013
 0.906728E-013
 0.906633E-013
 0.906540E-013
 0.906450E-013
 0.906362E-013
 0.906276E-013
 0.906192E-013
 0.906112E-013
 0.906034E-013
 0.905958E-013
 0.905886E-013
 0.905817E-013
 0.905751E-013
 0.905688E-013
 0.905628E-013
 0.905572E-013
 0.905520E-013
 0.905471E-013
 0.905426E-013
 0.905384E-013
 0.905347E-013
 0.905313E-013
 0.905284E-013
 0.905259E-013
 0.905238E-013
 0.905221E-013
 0.905208E-013
 0.905199E-013
 0.905195E-013
 0.905195E-013
 0.905199E-013
 0.905208E-013
 0.905221E-013
 0.905238E-013
 0.905259E-013
 0.905284E-013
 0.905313E-013
 0.905347E-013
 0.905384E-013
 0.905426E-013
 0.905471E-013
 0.905520E-013
 0.905572E-013
 0.905628E-013
 0.905688E-013
 0.905751E-013
 0.905817E-013
 0.905886E-013
 0.905958E-013
 0.906034E-013
 0.906112E-013
 0.906193E-013
 0.906276E-013
 0.906362E-013
 0.906450E-013
 0.906540E-013
 0.906633E-013
 0.906728E-013
 0.906824E-013
 0.906923E-013
 0.907023E-013
 0.907124E-013
 0.907228E-013
 0.907332E-013
 0.907438E-013
 0.907545E-013
 0.907654E-013
 0.907763E-013
 0.907874E-013
 0.907986E-013
 0.908098E-013
 0.908211E-013
 0.908325E-013
 0.908440E-013
 0.908556E-013
 0.908672E-013
 0.908789E-013
 0.908906E-013
 0.909024E-013
 0.909142E-013
 0.909261E-013
 0.909380E-013
 0.909500E-013
 0.909620E-013
 0.909742E-013
 0.909858E-013
 0.910000E-013
 0.910043E-013
 0.910433E-013
 0.909761E-013
 0.911893E-013
 0.907757E-013
 0.915282E-013
 0.916460E-013
 0.907656E-013
 0.912812E-013
 0.910433E-013
 0.911439E-013
 0.911156E-013
 0.911296E-013
 0.911315E-013
 0.911364E-013
 0.911406E-013
 0.911450E-013
 0.911493E-013
 0.911536E-013
 0.911578E-013
 0.911621E-013
 0.911663E-013
 0.911706E-013
 0.911748E-013
 0.911789E-013
 0.911831E-013
 0.911872E-013
 0.911913E-013
 0.911954E-013
 0.911994E-013
 0.912034E-013
 0.912074E-013
 0.912113E-013
 0.912152E-013
 0.912191E-013
 0.912229E-013
 0.912266E-013
 0.912303E-013
 0.912340E-013
 0.912376E-013
 0.912411E-013
 0.912446E-013
 0.912480E-013
 0.912513E-013
 0.912546E-013
 0.912577E-013
 0.912608E-013
 0.912638E-013
 0.912667E-013
 0.912695E-013
 0.912722E-013
 0.912748E-013
 0.912773E-013
 0.912797E-013
 0.912820E-013
 0.912841E-013
 0.912861E-013
 0.912880E-013
 0.912898E-013
 0.912914E-013
 0.912929E-013
 0.912942E-013
 0.912954E-013
 0.912965E-013
 0.912974E-013
 0.912982E-013
 0.912988E-013
 0.912992E-013
 0.912995E-013
 0.912997E-013
 0.912997E-013
 0.912995E-013
 0.912992E-013
 0.912988E-013
 0.912982E-013
 0.912974E-013
 0.912965E-013
 0.912954E-013
 0.912942E-013
 0.912929E-013
 0.912914E-013
 0.912898E-013
 0.912880E-013
 0.912861E-013
 0.912841E-013
 0.912820E-013
 0.912797E-013
 0.912773E-013
 0.912748E-013
 0.912722E-013
 0.912695E-013
 0.912667E-013
 0.912638E-013
 0.912608E-013
 0.912577E-013
 0.912546E-013
 0.912513E-013
 0.912480E-013
 0.912446E-013
 0.912411E-013
 0.912376E-013
 0.912340E-013
 0.912303E-013
 0.912266E-013
 0.912229E-013
 0.912191E-013
 0.912152E-013
 0.912113E-013
 0.912074E-013
 0.912034E-013
 0.911994E-013
 0.911954E-013
 0.911913E-013
 0.911872E-013
 0.911831E-013
 0.911789E-013
 0.911747E-013
 0.911706E-013
 0.911663E-013
 0.911621E-013
 0.911578E-013
 0.911536E-013
 0.911493E-013
 0.911450E-013
 0.911406E-013
 0.911364E-013
 0.911315E-013
 0.911296E-013
 0.911156E-013
 0.911439E-013
 0.910433E-013
 0.912812E-013
 0.907656E-013
 0.916460E-013
 0.917152E-013
 0.906967E-013
 0.912885E-013
 0.910043E-013
 0.911156E-013
 0.910760E-013
 0.910859E-013
 0.910816E-013
 0.910810E-013
 0.910795E-013
 0.910782E-013
 0.910769E-013
 0.910755E-013
 0.910742E-013
 0.910729E-013
 0.910716E-013
 0.910703E-013
 0.910690E-013
 0.910677E-013
 0.910665E-013
 0.910652E-013
 0.910639E-013
 0.910627E-013
 0.910614E-013
 0.910602E-013
 0.910590E-013
 0.910578E-013
 0.910566E-013
 0.910554E-013
 0.910542E-013
 0.910530E-013
 0.910519E-013
 0.910508E-013
 0.910497E-013
 0.910486E-013
 0.910475E-013
 0.910465E-013
 0.910454E-013
 0.910444E-013
 0.910435E-013
 0.910425E-013
 0.910416E-013
 0.910407E-013
 0.910398E-013
 0.910390E-013
 0.910382E-013
 0.910374E-013
 0.910367E-013
 0.910360E-013
 0.910354E-013
 0.910347E-013
 0.910342E-013
 0.910336E-013
 0.910331E-013
 0.910327E-013
 0.910323E-013
 0.910319E-013
 0.910316E-013
 0.910313E-013
 0.910311E-013
 0.910309E-013
 0.910307E-013
 0.910306E-013
 0.910306E-013
 0.910306E-013
 0.910306E-013
 0.910307E-013
 0.910309E-013
 0.910311E-013
 0.910313E-013
 0.910316E-013
 0.910319E-013
 0.910323E-013
 0.910327E-013
 0.910331E-013
 0.910336E-013
 0.910342E-013
 0.910347E-013
 0.910354E-013
 0.910360E-013
 0.910367E-013
 0.910374E-013
 0.910382E-013
 0.910390E-013
 0.910398E-013
 0.910407E-013
 0.910416E-013
 0.910425E-013
 0.910435E-013
 0.910444E-013
 0.910454E-013
 0.910465E-013
 0.910475E-013
 0.910486E-013
 0.910497E-013
 0.910508E-013
 0.910519E-013
 0.910530E-013
 0.910542E-013
 0.910554E-013
 0.910566E-013
 0.910578E-013
 0.910590E-013
 0.910602E-013
 0.910614E-013
 0.910627E-013
 0.910639E-013
 0.910652E-013
 0.910665E-013
 0.910677E-013
 0.910690E-013
 0.910703E-013
 0.910716E-013
 0.910729E-013
 0.910742E-013
 0.910755E-013
 0.910769E-013
 0.910782E-013
 0.910795E-013
 0.910810E-013
 0.910816E-013
 0.910859E-013
 0.910760E-013
 0.911156E-013
 0.910043E-013
 0.912884E-013
 0.906967E-013
 0.917152E-013
 0.917988E-013
 0.906470E-013
 0.913231E-013
 0.910000E-013
 0.911296E-013
 0.910859E-013
 0.910993E-013
 0.910963E-013
 0.910974E-013
 0.910976E-013
 0.910980E-013
 0.910984E-013
 0.910987E-013
 0.910991E-013
 0.910994E-013
 0.910998E-013
 0.911001E-013
 0.911005E-013
 0.911008E-013
 0.911012E-013
 0.911015E-013
 0.911019E-013
 0.911022E-013
 0.911025E-013
 0.911029E-013
 0.911032E-013
 0.911035E-013
 0.911039E-013
 0.911042E-013
 0.911045E-013
 0.911048E-013
 0.911051E-013
 0.911054E-013
 0.911057E-013
 0.911060E-013
 0.911063E-013
 0.911066E-013
 0.911069E-013
 0.911072E-013
 0.911074E-013
 0.911077E-013
 0.911079E-013
 0.911082E-013
 0.911084E-013
 0.911087E-013
 0.911089E-013
 0.911091E-013
 0.911093E-013
 0.911095E-013
 0.911097E-013
 0.911098E-013
 0.911100E-013
 0.911101E-013
 0.911103E-013
 0.911104E-013
 0.911105E-013
 0.911106E-013
 0.911107E-013
 0.911108E-013
 0.911109E-013
 0.911109E-013
 0.911109E-013
 0.911110E-013
 0.911110E-013
 0.911110E-013
 0.911110E-013
 0.911109E-013
 0.911109E-013
 0.911109E-013
 0.911108E-013
 0.911107E-013
 0.911106E-013
 0.911105E-013
 0.911104E-013
 0.911103E-013
 0.911101E-013
 0.911100E-013
 0.911098E-013
 0.911097E-013
 0.911095E-013
 0.911093E-013
 0.911091E-013
 0.911089E-013
 0.911087E-013
 0.911084E-013
 0.911082E-013
 0.911079E-013
 0.911077E-013
 0.911074E-013
 0.911072E-013
 0.911069E-013
 0.911066E-013
 0.911063E-013
 0.911060E-013
 0.911057E-013
 0.911054E-013
 0.911051E-013
 0.911048E-013
 0.911045E-013
 0.911042E-013
 0.911039E-013
 0.911035E-013
 0.911032E-013
 0.911029E-013
 0.911025E-013
 0.911022E-013
 0.911019E-013
 0.911015E-013
 0.911012E-013
 0.911008E-013
 0.911005E-013
 0.911001E-013
 0.910998E-013
 0.910994E-013
 0.910991E-013
 0.910987E-013
 0.910984E-013
 0.910980E-013
 0.910976E-013
 0.910974E-013
 0.910963E-013
 0.910993E-013
 0.910859E-013
 0.911296E-013
 0.910000E-013
 0.913231E-013
 0.906470E-013
 0.917988E-013
 0.918783E-013
 0.905921E-013
 0.913498E-013
 0.909858E-013
 0.911315E-013
 0.910816E-013
 0.910963E-013
 0.910924E-013
 0.910932E-013
 0.910929E-013
 0.910928E-013
 0.910928E-013
 0.910927E-013
 0.910926E-013
 0.910925E-013
 0.910924E-013
 0.910923E-013
 0.910923E-013
 0.910922E-013
 0.910921E-013
 0.910920E-013
 0.910919E-013
 0.910919E-013
 0.910918E-013
 0.910917E-013
 0.910916E-013
 0.910915E-013
 0.910915E-013
 0.910914E-013
 0.910913E-013
 0.910912E-013
 0.910912E-013
 0.910911E-013
 0.910910E-013
 0.910910E-013
 0.910909E-013
 0.910908E-013
 0.910908E-013
 0.910907E-013
 0.910907E-013
 0.910906E-013
 0.910905E-013
 0.910905E-013
 0.910904E-013
 0.910904E-013
 0.910903E-013
 0.910903E-013
 0.910903E-013
 0.910902E-013
 0.910902E-013
 0.910901E-013
 0.910901E-013
 0.910901E-013
 0.910901E-013
 0.910900E-013
 0.910900E-013
 0.910900E-013
 0.910900E-013
 0.910900E-013
 0.910899E-013
 0.910899E-013
 0.910899E-013
 0.910899E-013
 0.910899E-013
 0.910899E-013
 0.910899E-013
 0.910899E-013
 0.910899E-013
 0.910899E-013
 0.910900E-013
 0.910900E-013
 0.910900E-013
 0.910900E-013
 0.910900E-013
 0.910901E-013
 0.910901E-013
 0.910901E-013
 0.910901E-013
 0.910902E-013
 0.910902E-013
 0.910903E-013
 0.910903E-013
 0.910903E-013
 0.910904E-013
 0.910904E-013
 0.910905E-013
 0.910905E-013
 0.910906E-013
 0.910907E-013
 0.910907E-013
 0.910908E-013
 0.910908E-013
 0.910909E-013
 0.910910E-013
 0.910910E-013
 0.910911E-013
 0.910912E-013
 0.910912E-013
 0.910913E-013
 0.910914E-013
 0.910915E-013
 0.910915E-013
 0.910916E-013
 0.910917E-013
 0.910918E-013
 0.910919E-013
 0.910919E-013
 0.910920E-013
 0.910921E-013
 0.910922E-013
 0.910923E-013
 0.910923E-013
 0.910924E-013
 0.910925E-013
 0.910926E-013
 0.910927E-013
 0.910928E-013
 0.910928E-013
 0.910929E-013
 0.910932E-013
 0.910924E-013
 0.910963E-013
 0.910816E-013
 0.911315E-013
 0.909858E-013
 0.913498E-013
 0.905921E-013
 0.918783E-013
 0.919584E-013
 0.905387E-013
 0.913784E-013
 0.909742E-013
 0.911364E-013
 0.910810E-013
 0.910974E-013
 0.910932E-013
 0.910942E-013
 0.910940E-013
 0.910941E-013
 0.910941E-013
 0.910941E-013
 0.910941E-013
 0.910941E-013
 0.910941E-013
 0.910942E-013
 0.910942E-013
 0.910942E-013
 0.910942E-013
 0.910942E-013
 0.910943E-013
 0.910943E-013
 0.910943E-013
 0.910943E-013
 0.910943E-013
 0.910943E-013
 0.910944E-013
 0.910944E-013
 0.910944E-013
 0.910944E-013
 0.910944E-013
 0.910945E-013
 0.910945E-013
 0.910945E-013
 0.910945E-013
 0.910945E-013
 0.910946E-013
 0.910946E-013
 0.910946E-013
 0.910946E-013
 0.910946E-013
 0.910946E-013
 0.910947E-013
 0.910947E-013
 0.910947E-013
 0.910947E-013
 0.910947E-013
 0.910947E-013
 0.910948E-013
 0.910948E-013
 0.910948E-013
 0.910948E-013
 0.910948E-013
 0.910948E-013
 0.910948E-013
 0.910948E-013
 0.910949E-013
 0.910949E-013
 0.910949E-013
 0.910949E-013
 0.910949E-013
 0.910949E-013
 0.910949E-013
 0.910949E-013
 0.910949E-013
 0.910949E-013
 0.910949E-013
 0.910949E-013
 0.910949E-013
 0.910949E-013
 0.910948E-013
 0.910948E-013
 0.910948E-013
 0.910948E-013
 0.910948E-013
 0.910948E-013
 0.910948E-013
 0.910948E-013
 0.910947E-013
 0.910947E-013
 0.910947E-013
 0.910947E-013
 0.910947E-013
 0.910947E-013
 0.910946E-013
 0.910946E-013
 0.910946E-013
 0.910946E-013
 0.910946E-013
 0.910946E-013
 0.910945E-013
 0.910945E-013
 0.910945E-013
 0.910945E-013
 0.910945E-013
 0.910944E-013
 0.910944E-013
 0.910944E-013
 0.910944E-013
 0.910944E-013
 0.910943E-013
 0.910943E-013
 0.910943E-013
 0.910943E-013
 0.910943E-013
 0.910943E-013
 0.910942E-013
 0.910942E-013
 0.910942E-013
 0.910942E-013
 0.910942E-013
 0.910941E-013
 0.910941E-013
 0.910941E-013
 0.910941E-013
 0.910941E-013
 0.910941E-013
 0.910940E-013
 0.910942E-013
 0.910932E-013
 0.910974E-013
 0.910810E-013
 0.911364E-013
 0.909742E-013
 0.913784E-013
 0.905387E-013
 0.919585E-013
 0.920382E-013
 0.904851E-013
 0.914065E-013
 0.909620E-013
 0.911406E-013
 0.910795E-013
 0.910976E-013
 0.910929E-013
 0.910940E-013
 0.910938E-013
 0.910938E-013
 0.910938E-013
 0.910938E-013
 0.910938E-013
 0.910938E-013
 0.910938E-013
 0.910938E-013
 0.910938E-013
 0.910938E-013
 0.910938E-013
 0.910938E-013
 0.910938E-013
 0.910938E-013
 0.910938E-013
 0.910938E-013
 0.910938E-013
 0.910938E-013
 0.910938E-013
 0.910938E-013
 0.910938E-013
 0.910938E-013
 0.910938E-013
 0.910938E-013
 0.910938E-013
 0.910938E-013
 0.910938E-013
 0.910938E-013
 0.910938E-013
 0.910938E-013
 0.910938E-013
 0.910938E-013
 0.910938E-013
 0.910938E-013
 0.910938E-013
 0.910938E-013
 0.910938E-013
 0.910938E-013
 0.910938E-013
 0.910938E-013
 0.910938E-013
 0.910938E-013
 0.910938E-013
 0.910938E-013
 0.910938E-013
 0.910938E-013
 0.910939E-013
 0.910939E-013
 0.910939E-013
 0.910939E-013
 0.910939E-013
 0.910939E-013
 0.910939E-013
 0.910939E-013
 0.910939E-013
 0.910939E-013
 0.910939E-013
 0.910939E-013
 0.910939E-013
 0.910939E-013
 0.910939E-013
 0.910939E-013
 0.910939E-013
 0.910939E-013
 0.910938E-013
 0.910938E-013
 0.910938E-013
 0.910938E-013
 0.910938E-013
 0.910938E-013
 0.910938E-013
 0.910938E-013
 0.910938E-013
 0.910938E-013
 0.910938E-013
 0.910938E-013
 0.910938E-013
 0.910938E-013
 0.910938E-013
 0.910938E-013
 0.910938E-013
 0.910938E-013
 0.910938E-013
 0.910938E-013
 0.910938E-013
 0.910938E-013
 0.910938E-013
 0.910938E-013
 0.910938E-013
 0.910938E-013
 0.910938E-013
 0.910938E-013
 0.910938E-013
 0.910938E-013
 0.910938E-013
 0.910938E-013
 0.910938E-013
 0.910938E-013
 0.910938E-013
 0.910938E-013
 0.910938E-013
 0.910938E-013
 0.910938E-013
 0.910938E-013
 0.910938E-013
 0.910938E-013
 0.910938E-013
 0.910938E-013
 0.910938E-013
 0.910938E-013
 0.910940E-013
 0.910929E-013
 0.910976E-013
 0.910795E-013
 0.911406E-013
 0.909620E-013
 0.914065E-013
 0.904851E-013
 0.920382E-013
 0.921177E-013
 0.904318E-013
 0.914346E-013
 0.909500E-013
 0.911450E-013
 0.910782E-013
 0.910980E-013
 0.910928E-013
 0.910941E-013
 0.910938E-013
 0.910939E-013
 0.910938E-013
 0.910938E-013
 0.910938E-013
 0.910938E-013
 0.910939E-013
 0.910939E-013
 0.910939E-013
 0.910939E-013
 0.910939E-013
 0.910939E-013
 0.910939E-013
 0.910939E-013
 0.910939E-013
 0.910939E-013
 0.910939E-013
 0.910939E-013
 0.910939E-013
 0.910939E-013
 0.910939E-013
 0.910939E-013
 0.910939E-013
 0.910939E-013
 0.910939E-013
 0.910939E-013
 0.910939E-013
 0.910939E-013
 0.910939E-013
 0.910939E-013
 0.910940E-013
 0.910940E-013
 0.910940E-013
 0.910940E-013
 0.910940E-013
 0.910940E-013
 0.910940E-013
 0.910940E-013
 0.910940E-013
 0.910940E-013