# vtk DataFile Version 3.0
Solution data
ASCII
DATASET STRUCTURED_GRID
DIMENSIONS 128 128 1
POINTS 16384  double
      0.000004      0.000004      0.000000
      0.000012      0.000004      0.000000
      0.000020      0.000004      0.000000
      0.000027      0.000004      0.000000
      0.000035      0.000004      0.000000
      0.000043      0.000004      0.000000
      0.000051      0.000004      0.000000
      0.000059      0.000004      0.000000
      0.000066      0.000004      0.000000
      0.000074      0.000004      0.000000
      0.000082      0.000004      0.000000
      0.000090      0.000004      0.000000
      0.000098      0.000004      0.000000
      0.000105      0.000004      0.000000
      0.000113      0.000004      0.000000
      0.000121      0.000004      0.000000
      0.000129      0.000004      0.000000
      0.000137      0.000004      0.000000
      0.000145      0.000004      0.000000
      0.000152      0.000004      0.000000
      0.000160      0.000004      0.000000
      0.000168      0.000004      0.000000
      0.000176      0.000004      0.000000
      0.000184      0.000004      0.000000
      0.000191      0.000004      0.000000
      0.000199      0.000004      0.000000
      0.000207      0.000004      0.000000
      0.000215      0.000004      0.000000
      0.000223      0.000004      0.000000
      0.000230      0.000004      0.000000
      0.000238      0.000004      0.000000
      0.000246      0.000004      0.000000
      0.000254      0.000004      0.000000
      0.000262      0.000004      0.000000
      0.000270      0.000004      0.000000
      0.000277      0.000004      0.000000
      0.000285      0.000004      0.000000
      0.000293      0.000004      0.000000
      0.000301      0.000004      0.000000
      0.000309      0.000004      0.000000
      0.000316      0.000004      0.000000
      0.000324      0.000004      0.000000
      0.000332      0.000004      0.000000
      0.000340      0.000004      0.000000
      0.000348      0.000004      0.000000
      0.000355      0.000004      0.000000
      0.000363      0.000004      0.000000
      0.000371      0.000004      0.000000
      0.000379      0.000004      0.000000
      0.000387      0.000004      0.000000
      0.000395      0.000004      0.000000
      0.000402      0.000004      0.000000
      0.000410      0.000004      0.000000
      0.000418      0.000004      0.000000
      0.000426      0.000004      0.000000
      0.000434      0.000004      0.000000
      0.000441      0.000004      0.000000
      0.000449      0.000004      0.000000
      0.000457      0.000004      0.000000
      0.000465      0.000004      0.000000
      0.000473      0.000004      0.000000
      0.000480      0.000004      0.000000
      0.000488      0.000004      0.000000
      0.000496      0.000004      0.000000
      0.000504      0.000004      0.000000
      0.000512      0.000004      0.000000
      0.000520      0.000004      0.000000
      0.000527      0.000004      0.000000
      0.000535      0.000004      0.000000
      0.000543      0.000004      0.000000
      0.000551      0.000004      0.000000
      0.000559      0.000004      0.000000
      0.000566      0.000004      0.000000
      0.000574      0.000004      0.000000
      0.000582      0.000004      0.000000
      0.000590      0.000004      0.000000
      0.000598      0.000004      0.000000
      0.000605      0.000004      0.000000
      0.000613      0.000004      0.000000
      0.000621      0.000004      0.000000
      0.000629      0.000004      0.000000
      0.000637      0.000004      0.000000
      0.000645      0.000004      0.000000
      0.000652      0.000004      0.000000
      0.000660      0.000004      0.000000
      0.000668      0.000004      0.000000
      0.000676      0.000004      0.000000
      0.000684      0.000004      0.000000
      0.000691      0.000004      0.000000
      0.000699      0.000004      0.000000
      0.000707      0.000004      0.000000
      0.000715      0.000004      0.000000
      0.000723      0.000004      0.000000
      0.000730      0.000004      0.000000
      0.000738      0.000004      0.000000
      0.000746      0.000004      0.000000
      0.000754      0.000004      0.000000
      0.000762      0.000004      0.000000
      0.000770      0.000004      0.000000
      0.000777      0.000004      0.000000
      0.000785      0.000004      0.000000
      0.000793      0.000004      0.000000
      0.000801      0.000004      0.000000
      0.000809      0.000004      0.000000
      0.000816      0.000004      0.000000
      0.000824      0.000004      0.000000
      0.000832      0.000004      0.000000
      0.000840      0.000004      0.000000
      0.000848      0.000004      0.000000
      0.000855      0.000004      0.000000
      0.000863      0.000004      0.000000
      0.000871      0.000004      0.000000
      0.000879      0.000004      0.000000
      0.000887      0.000004      0.000000
      0.000895      0.000004      0.000000
      0.000902      0.000004      0.000000
      0.000910      0.000004      0.000000
      0.000918      0.000004      0.000000
      0.000926      0.000004      0.000000
      0.000934      0.000004      0.000000
      0.000941      0.000004      0.000000
      0.000949      0.000004      0.000000
      0.000957      0.000004      0.000000
      0.000965      0.000004      0.000000
      0.000973      0.000004      0.000000
      0.000980      0.000004      0.000000
      0.000988      0.000004      0.000000
      0.000996      0.000004      0.000000
      0.000004      0.000012      0.000000
      0.000012      0.000012      0.000000
      0.000020      0.000012      0.000000
      0.000027      0.000012      0.000000
      0.000035      0.000012      0.000000
      0.000043      0.000012      0.000000
      0.000051      0.000012      0.000000
      0.000059      0.000012      0.000000
      0.000066      0.000012      0.000000
      0.000074      0.000012      0.000000
      0.000082      0.000012      0.000000
      0.000090      0.000012      0.000000
      0.000098      0.000012      0.000000
      0.000105      0.000012      0.000000
      0.000113      0.000012      0.000000
      0.000121      0.000012      0.000000
      0.000129      0.000012      0.000000
      0.000137      0.000012      0.000000
      0.000145      0.000012      0.000000
      0.000152      0.000012      0.000000
      0.000160      0.000012      0.000000
      0.000168      0.000012      0.000000
      0.000176      0.000012      0.000000
      0.000184      0.000012      0.000000
      0.000191      0.000012      0.000000
      0.000199      0.000012      0.000000
      0.000207      0.000012      0.000000
      0.000215      0.000012      0.000000
      0.000223      0.000012      0.000000
      0.000230      0.000012      0.000000
      0.000238      0.000012      0.000000
      0.000246      0.000012      0.000000
      0.000254      0.000012      0.000000
      0.000262      0.000012      0.000000
      0.000270      0.000012      0.000000
      0.000277      0.000012      0.000000
      0.000285      0.000012      0.000000
      0.000293      0.000012      0.000000
      0.000301      0.000012      0.000000
      0.000309      0.000012      0.000000
      0.000316      0.000012      0.000000
      0.000324      0.000012      0.000000
      0.000332      0.000012      0.000000
      0.000340      0.000012      0.000000
      0.000348      0.000012      0.000000
      0.000355      0.000012      0.000000
      0.000363      0.000012      0.000000
      0.000371      0.000012      0.000000
      0.000379      0.000012      0.000000
      0.000387      0.000012      0.000000
      0.000395      0.000012      0.000000
      0.000402      0.000012      0.000000
      0.000410      0.000012      0.000000
      0.000418      0.000012      0.000000
      0.000426      0.000012      0.000000
      0.000434      0.000012      0.000000
      0.000441      0.000012      0.000000
      0.000449      0.000012      0.000000
      0.000457      0.000012      0.000000
      0.000465      0.000012      0.000000
      0.000473      0.000012      0.000000
      0.000480      0.000012      0.000000
      0.000488      0.000012      0.000000
      0.000496      0.000012      0.000000
      0.000504      0.000012      0.000000
      0.000512      0.000012      0.000000
      0.000520      0.000012      0.000000
      0.000527      0.000012      0.000000
      0.000535      0.000012      0.000000
      0.000543      0.000012      0.000000
      0.000551      0.000012      0.000000
      0.000559      0.000012      0.000000
      0.000566      0.000012      0.000000
      0.000574      0.000012      0.000000
      0.000582      0.000012      0.000000
      0.000590      0.000012      0.000000
      0.000598      0.000012      0.000000
      0.000605      0.000012      0.000000
      0.000613      0.000012      0.000000
      0.000621      0.000012      0.000000
      0.000629      0.000012      0.000000
      0.000637      0.000012      0.000000
      0.000645      0.000012      0.000000
      0.000652      0.000012      0.000000
      0.000660      0.000012      0.000000
      0.000668      0.000012      0.000000
      0.000676      0.000012      0.000000
      0.000684      0.000012      0.000000
      0.000691      0.000012      0.000000
      0.000699      0.000012      0.000000
      0.000707      0.000012      0.000000
      0.000715      0.000012      0.000000
      0.000723      0.000012      0.000000
      0.000730      0.000012      0.000000
      0.000738      0.000012      0.000000
      0.000746      0.000012      0.000000
      0.000754      0.000012      0.000000
      0.000762      0.000012      0.000000
      0.000770      0.000012      0.000000
      0.000777      0.000012      0.000000
      0.000785      0.000012      0.000000
[...]
POINT_DATA 16384
SCALARS rhoe double
LOOKUP_TABLE default
 0.916765E-013
 0.912033E-013
 0.915551E-013
 0.915165E-013
 0.916385E-013
 0.917022E-013
 0.917843E-013
 0.918609E-013
 0.919386E-013
 0.920158E-013
 0.920928E-013
 0.921695E-013
 0.922459E-013
 0.923221E-013
 0.923979E-013
 0.924735E-013
 0.925486E-013
 0.926235E-013
 0.926979E-013
 0.927718E-013
 0.928454E-013
 0.929184E-013
 0.929909E-013
 0.930629E-013
 0.931343E-013
 0.932050E-013
 0.932751E-013
 0.933445E-013
 0.934130E-013
 0.934808E-013
 0.935477E-013
 0.936136E-013
 0.936786E-013
 0.937425E-013
 0.938052E-013
 0.938669E-013
 0.939272E-013
 0.939863E-013
 0.940440E-013
 0.941002E-013
 0.941549E-013
 0.942080E-013
 0.942595E-013
 0.943092E-013
 0.943571E-013
 0.944032E-013
 0.944473E-013
 0.944894E-013
 0.945294E-013
 0.945672E-013
 0.946029E-013
 0.946363E-013
 0.946673E-013
 0.946960E-013
 0.947222E-013
 0.947460E-013
 0.947672E-013
 0.947859E-013
 0.948019E-013
 0.948154E-013
 0.948261E-013
 0.948342E-013
 0.948397E-013
 0.948424E-013
 0.948424E-013
 0.948397E-013
 0.948343E-013
 0.948261E-013
 0.948154E-013
 0.948019E-013
 0.947859E-013
 0.947672E-013
 0.947460E-013
 0.947222E-013
 0.946960E-013
 0.946673E-013
 0.946363E-013
 0.946029E-013
 0.945672E-013
 0.945294E-013
 0.944894E-013
 0.944473E-013
 0.944032E-013
 0.943572E-013
 0.943092E-013
 0.942595E-013
 0.942080E-013
 0.941549E-013
 0.941002E-013
 0.940440E-013
 0.939863E-013
 0.939272E-013
 0.938669E-013
 0.938053E-013
 0.937425E-013
 0.936786E-013
 0.936136E-013
 0.935477E-013
 0.934808E-013
 0.934130E-013
 0.933445E-013
 0.932751E-013
 0.932051E-013
 0.931343E-013
 0.930629E-013
 0.929910E-013
 0.929184E-013
 0.928454E-013
 0.927719E-013
 0.926979E-013
 0.926235E-013
 0.925487E-013
 0.924735E-013
 0.923979E-013
 0.923221E-013
 0.922459E-013
 0.921695E-013
 0.920928E-013
 0.920158E-013
 0.919386E-013
 0.918609E-013
 0.917843E-013
 0.917022E-013
 0.916386E-013
 0.915165E-013
 0.915551E-013
 0.912034E-013
 0.916765E-013
 0.912033E-013
 0.907543E-013
 0.909420E-013
 0.907670E-013
 0.907630E-013
 0.906909E-013
 0.906425E-013
 0.905871E-013
 0.905338E-013
 0.904801E-013
 0.904268E-013
 0.903736E-013
 0.903206E-013
 0.902678E-013
 0.902152E-013
 0.901628E-013
 0.901107E-013
 0.900588E-013
 0.900072E-013
 0.899560E-013
 0.899050E-013
 0.898543E-013
 0.898040E-013
 0.897541E-013
 0.897046E-013
 0.896555E-013
 0.896069E-013
 0.895588E-013
 0.895112E-013
 0.894642E-013
 0.894178E-013
 0.893720E-013
 0.893270E-013
 0.892826E-013
 0.892390E-013
 0.891962E-013
 0.891543E-013
 0.891132E-013
 0.890732E-013
 0.890341E-013
 0.889961E-013
 0.889592E-013
 0.889234E-013
 0.888888E-013
 0.888555E-013
 0.888235E-013
 0.887928E-013
 0.887636E-013
 0.887357E-013
 0.887094E-013
 0.886846E-013
 0.886614E-013
 0.886398E-013
 0.886198E-013
 0.886016E-013
 0.885851E-013
 0.885703E-013
 0.885573E-013
 0.885461E-013
 0.885368E-013
 0.885293E-013
 0.885236E-013
 0.885199E-013
 0.885180E-013
 0.885180E-013
 0.885199E-013
 0.885236E-013
 0.885293E-013
 0.885368E-013
 0.885461E-013
 0.885573E-013
 0.885703E-013
 0.885851E-013
 0.886016E-013
 0.886198E-013
 0.886398E-013
 0.886614E-013
 0.886846E-013
 0.887094E-013
 0.887357E-013
 0.887636E-013
 0.887928E-013
 0.888235E-013
 0.888555E-013
 0.888888E-013
 0.889234E-013
 0.889592E-013
 0.889961E-013
 0.890341E-013
 0.890732E-013
 0.891133E-013
 0.891543E-013
 0.891962E-013
 0.892390E-013
 0.892826E-013
 0.893270E-013
 0.893720E-013
 0.894178E-013
 0.894642E-013
 0.895112E-013
 0.895588E-013
 0.896069E-013
 0.896555E-013
 0.897046E-013
 0.897541E-013
 0.898040E-013
 0.898543E-013
 0.899050E-013
 0.899560E-013
 0.900073E-013
 0.900588E-013
 0.901107E-013
 0.901628E-013
 0.902152E-013
 0.902678E-013
 0.903206E-013
 0.903736E-013
 0.904268E-013
 0.904801E-013
 0.905338E-013
 0.905871E-013
 0.906425E-013
 0.906909E-013
 0.907630E-013
 0.907670E-013
 0.909420E-013
 0.907543E-013
 0.912034E-013
 0.915551E-013
 0.909420E-013
 0.913390E-013
 0.911922E-013
 0.912947E-013
 0.912988E-013
 0.913366E-013
 0.913641E-013
 0.913943E-013
 0.914237E-013
 0.914531E-013
 0.914825E-013
 0.915117E-013
 0.915407E-013
 0.915697E-013
 0.915985E-013
 0.916272E-013
 0.916558E-013
 0.916842E-013
 0.917125E-013
 0.917405E-013
 0.917685E-013
 0.917962E-013
 0.918237E-013
 0.918509E-013
 0.918780E-013
 0.919048E-013
 0.919313E-013
 0.919575E-013
 0.919834E-013
 0.920090E-013
 0.920342E-013
 0.920591E-013
 0.920835E-013
 0.921075E-013
 0.921311E-013
 0.921542E-013
 0.921769E-013
 0.921990E-013
 0.922205E-013
 0.922415E-013
 0.922618E-013
 0.922816E-013
 0.923006E-013
 0.923190E-013
 0.923367E-013
 0.923536E-013
 0.923697E-013
 0.923851E-013
 0.923996E-013
 0.924133E-013
 0.924261E-013
 0.924380E-013
 0.924490E-013
 0.924591E-013
 0.924682E-013
 0.924764E-013
 0.924836E-013
 0.924897E-013
 0.924949E-013
 0.924990E-013
 0.925021E-013
 0.925042E-013
 0.925053E-013
 0.925053E-013
 0.925042E-013
 0.925021E-013
 0.924990E-013
 0.924949E-013
 0.924897E-013
 0.924836E-013
 0.924764E-013
 0.924682E-013
 0.924591E-013
 0.924490E-013
 0.924380E-013
 0.924261E-013
 0.924133E-013
 0.923996E-013
 0.923851E-013
 0.923697E-013
 0.923536E-013
 0.923367E-013
 0.923190E-013
 0.923006E-013
 0.922815E-013
 0.922618E-013
 0.922415E-013
 0.922205E-013
 0.921990E-013
 0.921769E-013
 0.921542E-013
 0.921311E-013
 0.921075E-013
 0.920835E-013
 0.920590E-013
 0.920342E-013
 0.920090E-013
 0.919834E-013
 0.919575E-013
 0.919312E-013
 0.919047E-013
 0.918780E-013
 0.918509E-013
 0.918236E-013
 0.917961E-013
 0.917684E-013
 0.917405E-013
 0.917125E-013
 0.916842E-013
 0.916558E-013
 0.916272E-013
 0.915985E-013
 0.915697E-013
 0.915407E-013
 0.915116E-013
 0.914824E-013
 0.914531E-013
 0.914237E-013
 0.913943E-013
 0.913641E-013
 0.913366E-013
 0.912988E-013
 0.912947E-013
 0.911922E-013
 0.913390E-013
 0.909420E-013
 0.915551E-013
 0.915165E-013
 0.907670E-013
 0.911922E-013
 0.909619E-013
 0.910387E-013
 0.909929E-013
 0.909895E-013
 0.909733E-013
 0.909606E-013
 0.909470E-013
 0.909337E-013
 0.909205E-013
 0.909073E-013
 0.908941E-013
 0.908810E-013
 0.908679E-013
 0.908549E-013
 0.908420E-013
 0.908292E-013
 0.908164E-013
 0.908037E-013
 0.907910E-013
 0.907785E-013
 0.907660E-013
 0.907537E-013
 0.907415E-013
 0.907293E-013
 0.907173E-013
 0.907055E-013
 0.906937E-013
 0.906821E-013
 0.906707E-013
 0.906595E-013
 0.906484E-013
 0.906375E-013
 0.906268E-013
 0.906164E-013
 0.906061E-013
 0.905961E-013
 0.905864E-013
 0.905769E-013
 0.905676E-013
 0.905587E-013
 0.905501E-013
 0.905417E-013
 0.905337E-013
 0.905261E-013
 0.905188E-013
 0.905118E-013
 0.905052E-013
 0.904990E-013
 0.904932E-013
 0.904878E-013
 0.904828E-013
 0.904783E-013
 0.904741E-013
 0.904705E-013
 0.904672E-013
 0.904644E-013
 0.904621E-013
 0.904602E-013
 0.904588E-013
 0.904578E-013
 0.904574E-013
 0.904574E-013
 0.904578E-013
 0.904588E-013
 0.904602E-013
 0.904621E-013
 0.904644E-013
 0.904672E-013
 0.904705E-013
 0.904741E-013
 0.904783E-013
 0.904828E-013
 0.904878E-013
 0.904932E-013
 0.904990E-013
 0.905052E-013
 0.905118E-013
 0.905188E-013
 0.905261E-013
 0.905338E-013
 0.905418E-013
 0.905501E-013
 0.905587E-013
 0.905677E-013
 0.905769E-013
 0.905864E-013
 0.905961E-013
 0.906061E-013
 0.906164E-013
 0.906268E-013
 0.906375E-013
 0.906484E-013
 0.906595E-013
 0.906707E-013
 0.906822E-013
 0.906937E-013
 0.907055E-013
 0.907173E-013
 0.907293E-013
 0.907415E-013
 0.907537E-013
 0.907660E-013
 0.907785E-013
 0.907910E-013
 0.908037E-013
 0.908164E-013
 0.908292E-013
 0.908420E-013
 0.908549E-013
 0.908679E-013
 0.908810E-013
 0.908941E-013
 0.909073E-013
 0.909205E-013
 0.909338E-013
 0.909470E-013
 0.909606E-013
 0.909733E-013
 0.909895E-013
 0.909929E-013
 0.910387E-013
 0.909620E-013
 0.911922E-013
 0.907670E-013
 0.915165E-013
 0.916385E-013
 0.907630E-013
 0.912947E-013
 0.910387E-013
 0.911532E-013
 0.911191E-013
 0.911366E-013
 0.911383E-013
 0.911442E-013
 0.911491E-013
 0.911543E-013
 0.911593E-013
 0.911644E-013
 0.911694E-013
 0.911744E-013
 0.911794E-013
 0.911844E-013
 0.911893E-013
 0.911942E-013
 0.911991E-013
 0.912039E-013
 0.912087E-013
 0.912135E-013
 0.912183E-013
 0.912230E-013
 0.912277E-013
 0.912323E-013
 0.912369E-013
 0.912414E-013
 0.912459E-013
 0.912503E-013
 0.912547E-013
 0.912589E-013
 0.912632E-013
 0.912673E-013
 0.912714E-013
 0.912754E-013
 0.912793E-013
 0.912831E-013
 0.912869E-013
 0.912905E-013
 0.912940E-013
 0.912974E-013
 0.913007E-013
 0.913039E-013
 0.913069E-013
 0.913099E-013
 0.913127E-013
 0.913153E-013
 0.913178E-013
 0.913202E-013
 0.913224E-013
 0.913245E-013
 0.913264E-013
 0.913281E-013
 0.913297E-013
 0.913311E-013
 0.913323E-013
 0.913334E-013
 0.913343E-013
 0.913350E-013
 0.913356E-013
 0.913359E-013
 0.913361E-013
 0.913361E-013
 0.913359E-013
 0.913356E-013
 0.913350E-013
 0.913343E-013
 0.913334E-013
 0.913323E-013
 0.913311E-013
 0.913297E-013
 0.913281E-013
 0.913264E-013
 0.913245E-013
 0.913224E-013
 0.913202E-013
 0.913178E-013
 0.913153E-013
 0.913127E-013
 0.913099E-013
 0.913069E-013
 0.913039E-013
 0.913007E-013
 0.912974E-013
 0.912940E-013
 0.912905E-013
 0.912868E-013
 0.912831E-013
 0.912793E-013
 0.912754E-013
 0.912714E-013
 0.912673E-013
 0.912632E-013
 0.912589E-013
 0.912546E-013
 0.912503E-013
 0.912459E-013
 0.912414E-013
 0.912369E-013
 0.912323E-013
 0.912277E-013
 0.912230E-013
 0.912183E-013
 0.912135E-013
 0.912087E-013
 0.912039E-013
 0.911991E-013
 0.911942E-013
 0.911893E-013
 0.911844E-013
 0.911794E-013
 0.911744E-013
 0.911694E-013
 0.911644E-013
 0.911593E-013
 0.911543E-013
 0.911491E-013
 0.911442E-013
 0.911383E-013
 0.911366E-013
 0.911191E-013
 0.911532E-013
 0.910387E-013
 0.912947E-013
 0.907630E-013
 0.916386E-013
 0.917022E-013
 0.906909E-013
 0.912988E-013
 0.909929E-013
 0.911191E-013
 0.910713E-013
 0.910841E-013
 0.910784E-013
 0.910777E-013
 0.910758E-013
 0.910741E-013
 0.910725E-013
 0.910708E-013
 0.910692E-013
 0.910675E-013
 0.910659E-013
 0.910643E-013
 0.910626E-013
 0.910610E-013
 0.910594E-013
 0.910578E-013
 0.910562E-013
 0.910547E-013
 0.910531E-013
 0.910515E-013
 0.910500E-013
 0.910485E-013
 0.910470E-013
 0.910455E-013
 0.910440E-013
 0.910426E-013
 0.910411E-013
 0.910397E-013
 0.910383E-013
 0.910370E-013
 0.910356E-013
 0.910343E-013
 0.910330E-013
 0.910318E-013
 0.910306E-013
 0.910294E-013
 0.910282E-013
 0.910271E-013
 0.910260E-013
 0.910250E-013
 0.910240E-013
 0.910230E-013
 0.910221E-013
 0.910212E-013
 0.910204E-013
 0.910196E-013
 0.910189E-013
 0.910182E-013
 0.910176E-013
 0.910170E-013
 0.910165E-013
 0.910161E-013
 0.910157E-013
 0.910153E-013
 0.910150E-013
 0.910148E-013
 0.910146E-013
 0.910145E-013
 0.910144E-013
 0.910144E-013
 0.910145E-013
 0.910146E-013
 0.910148E-013
 0.910150E-013
 0.910153E-013
 0.910157E-013
 0.910161E-013
 0.910165E-013
 0.910170E-013
 0.910176E-013
 0.910182E-013
 0.910189E-013
 0.910196E-013
 0.910204E-013
 0.910212E-013
 0.910221E-013
 0.910230E-013
 0.910240E-013
 0.910250E-013
 0.910260E-013
 0.910271E-013
 0.910282E-013
 0.910294E-013
 0.910306E-013
 0.910318E-013
 0.910330E-013
 0.910343E-013
 0.910356E-013
 0.910370E-013
 0.910383E-013
 0.910397E-013
 0.910411E-013
 0.910426E-013
 0.910440E-013
 0.910455E-013
 0.910470E-013
 0.910485E-013
 0.910500E-013
 0.910516E-013
 0.910531E-013
 0.910547E-013
 0.910562E-013
 0.910578E-013
 0.910594E-013
 0.910610E-013
 0.910626E-013
 0.910643E-013
 0.910659E-013
 0.910675E-013
 0.910692E-013
 0.910708E-013
 0.910725E-013
 0.910741E-013
 0.910758E-013
 0.910777E-013
 0.910784E-013
 0.910841E-013
 0.910713E-013
 0.911191E-013
 0.909929E-013
 0.912988E-013
 0.906909E-013
 0.917022E-013
 0.917843E-013
 0.906425E-013
 0.913366E-013
 0.909895E-013
 0.911366E-013
 0.910841E-013
 0.911012E-013
 0.910971E-013
 0.910987E-013
 0.910989E-013
 0.910995E-013
 0.910999E-013
 0.911004E-013
 0.911009E-013
 0.911014E-013
 0.911019E-013
 0.911023E-013
 0.911028E-013
 0.911033E-013
 0.911037E-013
 0.911042E-013
 0.911046E-013
 0.911051E-013
 0.911055E-013
 0.911060E-013
 0.911064E-013
 0.911069E-013
 0.911073E-013
 0.911077E-013
 0.911082E-013
 0.911086E-013
 0.911090E-013
 0.911094E-013
 0.911098E-013
 0.911102E-013
 0.911106E-013
 0.911110E-013
 0.911114E-013
 0.911117E-013
 0.911121E-013
 0.911124E-013
 0.911128E-013
 0.911131E-013
 0.911134E-013
 0.911137E-013
 0.911140E-013
 0.911143E-013
 0.911146E-013
 0.911148E-013
 0.911150E-013
 0.911153E-013
 0.911155E-013
 0.911157E-013
 0.911159E-013
 0.911160E-013
 0.911162E-013
 0.911163E-013
 0.911164E-013
 0.911166E-013
 0.911166E-013
 0.911167E-013
 0.911168E-013
 0.911168E-013
 0.911168E-013
 0.911168E-013
 0.911168E-013
 0.911168E-013
 0.911167E-013
 0.911166E-013
 0.911166E-013
 0.911164E-013
 0.911163E-013
 0.911162E-013
 0.911160E-013
 0.911159E-013
 0.911157E-013
 0.911155E-013
 0.911153E-013
 0.911150E-013
 0.911148E-013
 0.911145E-013
 0.911143E-013
 0.911140E-013
 0.911137E-013
 0.911134E-013
 0.911131E-013
 0.911128E-013
 0.911124E-013
 0.911121E-013
 0.911117E-013
 0.911114E-013
 0.911110E-013
 0.911106E-013
 0.911102E-013
 0.911098E-013
 0.911094E-013
 0.911090E-013
 0.911086E-013
 0.911082E-013
 0.911077E-013
 0.911073E-013
 0.911069E-013
 0.911064E-013
 0.911060E-013
 0.911055E-013
 0.911051E-013
 0.911046E-013
 0.911042E-013
 0.911037E-013
 0.911033E-013
 0.911028E-013
 0.911023E-013
 0.911018E-013
 0.911014E-013
 0.911009E-013
 0.911004E-013
 0.910999E-013
 0.910995E-013
 0.910989E-013
 0.910987E-013
 0.910971E-013
 0.911012E-013
 0.910841E-013
 0.911366E-013
 0.909895E-013
 0.913366E-013
 0.906425E-013
 0.917843E-013
 0.918609E-013
 0.905871E-013
 0.913641E-013
 0.909733E-013
 0.911383E-013
 0.910784E-013
 0.910971E-013
 0.910917E-013
 0.910929E-013
 0.910925E-013
 0.910924E-013
 0.910923E-013
 0.910922E-013
 0.910920E-013
 0.910919E-013
 0.910918E-013
 0.910917E-013
 0.910916E-013
 0.910914E-013
 0.910913E-013
 0.910912E-013
 0.910911E-013
 0.910910E-013
 0.910909E-013
 0.910907E-013
 0.910906E-013
 0.910905E-013
 0.910904E-013
 0.910903E-013
 0.910902E-013
 0.910901E-013
 0.910900E-013
 0.910899E-013
 0.910898E-013
 0.910897E-013
 0.910896E-013
 0.910895E-013
 0.910894E-013
 0.910893E-013
 0.910892E-013
 0.910892E-013
 0.910891E-013
 0.910890E-013
 0.910889E-013
 0.910889E-013
 0.910888E-013
 0.910887E-013
 0.910887E-013
 0.910886E-013
 0.910885E-013
 0.910885E-013
 0.910884E-013
 0.910884E-013
 0.910884E-013
 0.910883E-013
 0.910883E-013
 0.910882E-013
 0.910882E-013
 0.910882E-013
 0.910882E-013
 0.910882E-013
 0.910881E-013
 0.910881E-013
 0.910881E-013
 0.910881E-013
 0.910881E-013
 0.910881E-013
 0.910882E-013
 0.910882E-013
 0.910882E-013
 0.910882E-013
 0.910882E-013
 0.910883E-013
 0.910883E-013
 0.910884E-013
 0.910884E-013
 0.910884E-013
 0.910885E-013
 0.910885E-013
 0.910886E-013
 0.910887E-013
 0.910887E-013
 0.910888E-013
 0.910889E-013
 0.910889E-013
 0.910890E-013
 0.910891E-013
 0.910892E-013
 0.910892E-013
 0.910893E-013
 0.910894E-013
 0.910895E-013
 0.910896E-013
 0.910897E-013
 0.910898E-013
 0.910899E-013
 0.910900E-013
 0.910901E-013
 0.910902E-013
 0.910903E-013
 0.910904E-013
 0.910905E-013
 0.910906E-013
 0.910907E-013
 0.910909E-013
 0.910910E-013
 0.910911E-013
 0.910912E-013
 0.910913E-013
 0.910914E-013
 0.910916E-013
 0.910917E-013
 0.910918E-013
 0.910919E-013
 0.910920E-013
 0.910922E-013
 0.910923E-013
 0.910924E-013
 0.910925E-013
 0.910929E-013
 0.910917E-013
 0.910971E-013
 0.910784E-013
 0.911383E-013
 0.909733E-013
 0.913641E-013
 0.905871E-013
 0.918609E-013
 0.919386E-013
 0.905338E-013
 0.913943E-013
 0.909606E-013
 0.911442E-013
 0.910777E-013
 0.910987E-013
 0.910929E-013
 0.910944E-013
 0.910941E-013
 0.910942E-013
 0.910942E-013
 0.910942E-013
 0.910942E-013
 0.910943E-013
 0.910943E-013
 0.910943E-013
 0.910944E-013
 0.910944E-013
 0.910944E-013
 0.910944E-013
 0.910945E-013
 0.910945E-013
 0.910945E-013
 0.910946E-013
 0.910946E-013
 0.910946E-013
 0.910946E-013
 0.910947E-013
 0.910947E-013
 0.910947E-013
 0.910948E-013
 0.910948E-013
 0.910948E-013
 0.910948E-013
 0.910949E-013
 0.910949E-013
 0.910949E-013
 0.910949E-013
 0.910950E-013
 0.910950E-013
 0.910950E-013
 0.910950E-013
 0.910951E-013
 0.910951E-013
 0.910951E-013
 0.910951E-013
 0.910952E-013
 0.910952E-013
 0.910952E-013
 0.910952E-013
 0.910952E-013
 0.910952E-013
 0.910953E-013
 0.910953E-013
 0.910953E-013
 0.910953E-013
 0.910953E-013
 0.910953E-013
 0.910953E-013
 0.910953E-013
 0.910953E-013
 0.910953E-013
 0.910953E-013
 0.910953E-013
 0.910953E-013
 0.910953E-013
 0.910953E-013
 0.910953E-013
 0.910953E-013
 0.910953E-013
 0.910953E-013
 0.910953E-013
 0.910953E-013
 0.910953E-013
 0.910952E-013
 0.910952E-013
 0.910952E-013
 0.910952E-013
 0.910952E-013
 0.910952E-013
 0.910951E-013
 0.910951E-013
 0.910951E-013
 0.910951E-013
 0.910950E-013
 0.910950E-013
 0.910950E-013
 0.910950E-013
 0.910949E-013
 0.910949E-013
 0.910949E-013
 0.910949E-013
 0.910948E-013
 0.910948E-013
 0.910948E-013
 0.910948E-013
 0.910947E-013
 0.910947E-013
 0.910947E-013
 0.910946E-013
 0.910946E-013
 0.910946E-013
 0.910946E-013
 0.910945E-013
 0.910945E-013
 0.910945E-013
 0.910944E-013
 0.910944E-013
 0.910944E-013
 0.910944E-013
 0.910943E-013
 0.910943E-013
 0.910943E-013
 0.910942E-013
 0.910942E-013
 0.910942E-013
 0.910942E-013
 0.910941E-013
 0.910944E-013
 0.910929E-013
 0.910987E-013
 0.910777E-013
 0.911442E-013
 0.909606E-013
 0.913943E-013
 0.905338E-013
 0.919386E-013
 0.920158E-013
 0.904801E-013
 0.914237E-013
 0.909470E-013
 0.911491E-013
 0.910758E-013
 0.910989E-013
 0.910925E-013
 0.910941E-013
 0.910937E-013
 0.910938E-013
 0.910938E-013
 0.910938E-013
 0.910938E-013
 0.910937E-013
 0.910937E-013
 0.910937E-013
 0.910937E-013
 0.910937E-013
 0.910937E-013
 0.910937E-013
 0.910937E-013
 0.910937E-013
 0.910937E-013
 0.910937E-013
 0.910937E-013
 0.910937E-013
 0.910937E-013
 0.910937E-013
 0.910937E-013
 0.910937E-013
 0.910937E-013
 0.910937E-013
 0.910937E-013
 0.910937E-013
 0.910937E-013
 0.910937E-013
 0.910937E-013
 0.910937E-013
 0.910937E-013
 0.910937E-013
 0.910937E-013
 0.910937E-013
 0.910937E-013
 0.910937E-013
 0.910937E-013
 0.910937E-013
 0.910937E-013
 0.910937E-013
 0.910937E-013
 0.910937E-013
 0.910937E-013
 0.910937E-013
 0.910937E-013
 0.910937E-013
 0.910937E-013
 0.910937E-013
 0.910937E-013
 0.910937E-013
 0.910938E-013
 0.910938E-013
 0.910938E-013
 0.910938E-013
 0.910938E-013
 0.910938E-013
 0.910938E-013
 0.910938E-013
 0.910938E-013
 0.910938E-013
 0.910937E-013
 0.910937E-013
 0.910937E-013
 0.910937E-013
 0.910937E-013
 0.910937E-013
 0.910937E-013
 0.910937E-013
 0.910937E-013
 0.910937E-013
 0.910937E-013
 0.910937E-013
 0.910937E-013
 0.910937E-013
 0.910937E-013
 0.910937E-013
 0.910937E-013
 0.910937E-013
 0.910937E-013
 0.910937E-013
 0.910937E-013
 0.910937E-013
 0.910937E-013
 0.910937E-013
 0.910937E-013
 0.910937E-013
 0.910937E-013
 0.910937E-013
 0.910937E-013
 0.910937E-013
 0.910937E-013
 0.910937E-013
 0.910937E-013
 0.910937E-013
 0.910937E-013
 0.910937E-013
 0.910937E-013
 0.910937E-013
 0.910937E-013
 0.910937E-013
 0.910937E-013
 0.910937E-013
 0.910937E-013
 0.910937E-013
 0.910937E-013
 0.910938E-013
 0.910938E-013
 0.910938E-013
 0.910938E-013
 0.910937E-013
 0.910941E-013
 0.910925E-013
 0.910989E-013
 0.910758E-013
 0.911491E-013
 0.909470E-013
 0.914237E-013
 0.904801E-013
 0.920158E-013
 0.920928E-013
 0.904268E-013
 0.914531E-013
 0.909337E-013
 0.911543E-013
 0.910741E-013
 0.910995E-013
 0.910924E-013
 0.910942E-013
 0.910938E-013
 0.910939E-013
 0.910938E-013
 0.910939E-013
 0.910939E-013
 0.910939E-013
 0.910939E-013
 0.910939E-013
 0.910939E-013
 0.910939E-013
 0.910939E-013
 0.910939E-013
 0.910939E-013
 0.910939E-013
 0.910939E-013
 0.910939E-013
 0.910939E-013
 0.910939E-013
 0.910939E-013
 0.910939E-013
 0.910939E-013
 0.910939E-013
 0.910939E-013
 0.910939E-013
 0.910939E-013
 0.910939E-013
 0.910939E-013
 0.910939E-013
 0.910940E-013
 0.910940E-013
 0.910940E-013
 0.910940E-013
 0.910940E-013
 0.910940E-013
 0.910940E-013
 0.910940E-013
 0.910940E-013
 0.910940E-013
 0.910940E-013
 0.910940E-013