# vtk DataFile Version 3.0
Solution data
ASCII
DATASET STRUCTURED_GRID
DIMENSIONS 128 128 1
POINTS 16384  double
      0.000004      0.000004      0.000000
      0.000012      0.000004      0.000000
      0.000020      0.000004      0.000000
      0.000027      0.000004      0.000000
      0.000035      0.000004      0.000000
      0.000043      0.000004      0.000000
      0.000051      0.000004      0.000000
      0.000059      0.000004      0.000000
      0.000066      0.000004      0.000000
      0.000074      0.000004      0.000000
      0.000082      0.000004      0.000000
      0.000090      0.000004      0.000000
      0.000098      0.000004      0.000000
      0.000105      0.000004      0.000000
      0.000113      0.000004      0.000000
      0.000121      0.000004      0.000000
      0.000129      0.000004      0.000000
      0.000137      0.000004      0.000000
      0.000145      0.000004      0.000000
      0.000152      0.000004      0.000000
      0.000160      0.000004      0.000000
      0.000168      0.000004      0.000000
      0.000176      0.000004      0.000000
      0.000184      0.000004      0.000000
      0.000191      0.000004      0.000000
      0.000199      0.000004      0.000000
      0.000207      0.000004      0.000000
      0.000215      0.000004      0.000000
      0.000223      0.000004      0.000000
      0.000230      0.000004      0.000000
      0.000238      0.000004      0.000000
      0.000246      0.000004      0.000000
      0.000254      0.000004      0.000000
      0.000262      0.000004      0.000000
      0.000270      0.000004      0.000000
      0.000277      0.000004      0.000000
      0.000285      0.000004      0.000000
      0.000293      0.000004      0.000000
      0.000301      0.000004      0.000000
      0.000309      0.000004      0.000000
      0.000316      0.000004      0.000000
      0.000324      0.000004      0.000000
      0.000332      0.000004      0.000000
      0.000340      0.000004      0.000000
      0.000348      0.000004      0.000000
      0.000355      0.000004      0.000000
      0.000363      0.000004      0.000000
      0.000371      0.000004      0.000000
      0.000379      0.000004      0.000000
      0.000387      0.000004      0.000000
      0.000395      0.000004      0.000000
      0.000402      0.000004      0.000000
      0.000410      0.000004      0.000000
      0.000418      0.000004      0.000000
      0.000426      0.000004      0.000000
      0.000434      0.000004      0.000000
      0.000441      0.000004      0.000000
      0.000449      0.000004      0.000000
      0.000457      0.000004      0.000000
      0.000465      0.000004      0.000000
      0.000473      0.000004      0.000000
      0.000480      0.000004      0.000000
      0.000488      0.000004      0.000000
      0.000496      0.000004      0.000000
      0.000504      0.000004      0.000000
      0.000512      0.000004      0.000000
      0.000520      0.000004      0.000000
      0.000527      0.000004      0.000000
      0.000535      0.000004      0.000000
      0.000543      0.000004      0.000000
      0.000551      0.000004      0.000000
      0.000559      0.000004      0.000000
      0.000566      0.000004      0.000000
      0.000574      0.000004      0.000000
      0.000582      0.000004      0.000000
      0.000590      0.000004      0.000000
      0.000598      0.000004      0.000000
      0.000605      0.000004      0.000000
      0.000613      0.000004      0.000000
      0.000621      0.000004      0.000000
      0.000629      0.000004      0.000000
      0.000637      0.000004      0.000000
      0.000645      0.000004      0.000000
      0.000652      0.000004      0.000000
      0.000660      0.000004      0.000000
      0.000668      0.000004      0.000000
      0.000676      0.000004      0.000000
      0.000684      0.000004      0.000000
      0.000691      0.000004      0.000000
      0.000699      0.000004      0.000000
      0.000707      0.000004      0.000000
      0.000715      0.000004      0.000000
      0.000723      0.000004      0.000000
      0.000730      0.000004      0.000000
      0.000738      0.000004      0.000000
      0.000746      0.000004      0.000000
      0.000754      0.000004      0.000000
      0.000762      0.000004      0.000000
      0.000770      0.000004      0.000000
      0.000777      0.000004      0.000000
      0.000785      0.000004      0.000000
      0.000793      0.000004      0.000000
      0.000801      0.000004      0.000000
      0.000809      0.000004      0.000000
      0.000816      0.000004      0.000000
      0.000824      0.000004      0.000000
      0.000832      0.000004      0.000000
      0.000840      0.000004      0.000000
      0.000848      0.000004      0.000000
      0.000855      0.000004      0.000000
      0.000863      0.000004      0.000000
      0.000871      0.000004      0.000000
      0.000879      0.000004      0.000000
      0.000887      0.000004      0.000000
      0.000895      0.000004      0.000000
      0.000902      0.000004      0.000000
      0.000910      0.000004      0.000000
      0.000918      0.000004      0.000000
      0.000926      0.000004      0.000000
      0.000934      0.000004      0.000000
      0.000941      0.000004      0.000000
      0.000949      0.000004      0.000000
      0.000957      0.000004      0.000000
      0.000965      0.000004      0.000000
      0.000973      0.000004      0.000000
      0.000980      0.000004      0.000000
      0.000988      0.000004      0.000000
      0.000996      0.000004      0.000000
      0.000004      0.000012      0.000000
      0.000012      0.000012      0.000000
      0.000020      0.000012      0.000000
      0.000027      0.000012      0.000000
      0.000035      0.000012      0.000000
      0.000043      0.000012      0.000000
      0.000051      0.000012      0.000000
      0.000059      0.000012      0.000000
      0.000066      0.000012      0.000000
      0.000074      0.000012      0.000000
      0.000082      0.000012      0.000000
      0.000090      0.000012      0.000000
      0.000098      0.000012      0.000000
      0.000105      0.000012      0.000000
      0.000113      0.000012      0.000000
      0.000121      0.000012      0.000000
      0.000129      0.000012      0.000000
      0.000137      0.000012      0.000000
      0.000145      0.000012      0.000000
      0.000152      0.000012      0.000000
      0.000160      0.000012      0.000000
      0.000168      0.000012      0.000000
      0.000176      0.000012      0.000000
      0.000184      0.000012      0.000000
      0.000191      0.000012      0.000000
      0.000199      0.000012      0.000000
      0.000207      0.000012      0.000000
      0.000215      0.000012      0.000000
      0.000223      0.000012      0.000000
      0.000230      0.000012      0.000000
      0.000238      0.000012      0.000000
      0.000246      0.000012      0.000000
      0.000254      0.000012      0.000000
      0.000262      0.000012      0.000000
      0.000270      0.000012      0.000000
      0.000277      0.000012      0.000000
      0.000285      0.000012      0.000000
      0.000293      0.000012      0.000000
      0.000301      0.000012      0.000000
      0.000309      0.000012      0.000000
      0.000316      0.000012      0.000000
      0.000324      0.000012      0.000000
      0.000332      0.000012      0.000000
      0.000340      0.000012      0.000000
      0.000348      0.000012      0.000000
      0.000355      0.000012      0.000000
      0.000363      0.000012      0.000000
      0.000371      0.000012      0.000000
      0.000379      0.000012      0.000000
      0.000387      0.000012      0.000000
      0.000395      0.000012      0.000000
      0.000402      0.000012      0.000000
      0.000410      0.000012      0.000000
      0.000418      0.000012      0.000000
      0.000426      0.000012      0.000000
      0.000434      0.000012      0.000000
      0.000441      0.000012      0.000000
      0.000449      0.000012      0.000000
      0.000457      0.000012      0.000000
      0.000465      0.000012      0.000000
      0.000473      0.000012      0.000000
      0.000480      0.000012      0.000000
      0.000488      0.000012      0.000000
      0.000496      0.000012      0.000000
      0.000504      0.000012      0.000000
      0.000512      0.000012      0.000000
      0.000520      0.000012      0.000000
      0.000527      0.000012      0.000000
      0.000535      0.000012      0.000000
      0.000543      0.000012      0.000000
      0.000551      0.000012      0.000000
      0.000559      0.000012      0.000000
      0.000566      0.000012      0.000000
      0.000574      0.000012      0.000000
      0.000582      0.000012      0.000000
      0.000590      0.000012      0.000000
      0.000598      0.000012      0.000000
      0.000605      0.000012      0.000000
      0.000613      0.000012      0.000000
      0.000621      0.000012      0.000000
      0.000629      0.000012      0.000000
      0.000637      0.000012      0.000000
      0.000645      0.000012      0.000000
      0.000652      0.000012      0.000000
      0.000660      0.000012      0.000000
      0.000668      0.000012      0.000000
      0.000676      0.000012      0.000000
      0.000684      0.000012      0.000000
      0.000691      0.000012      0.000000
      0.000699      0.000012      0.000000
      0.000707      0.000012      0.000000
      0.000715      0.000012      0.000000
      0.000723      0.000012      0.000000
      0.000730      0.000012      0.000000
      0.000738      0.000012      0.000000
      0.000746      0.000012      0.000000
      0.000754      0.000012      0.000000
      0.000762      0.000012      0.000000
      0.000770      0.000012      0.000000
      0.000777      0.000012      0.000000
      0.000785      0.000012      0.000000
[...]
POINT_DATA 16384
SCALARS rhoe double
LOOKUP_TABLE default
 0.914644E-013
 0.913170E-013
 0.914816E-013
 0.915734E-013
 0.916781E-013
 0.917807E-013
 0.918833E-013
 0.919856E-013
 0.920877E-013
 0.921896E-013
 0.922912E-013
 0.923925E-013
 0.924936E-013
 0.925944E-013
 0.926949E-013
 0.927950E-013
 0.928948E-013
 0.929941E-013
 0.930931E-013
 0.931916E-013
 0.932896E-013
 0.933871E-013
 0.934840E-013
 0.935803E-013
 0.936759E-013
 0.937707E-013
 0.938648E-013
 0.939580E-013
 0.940503E-013
 0.941416E-013
 0.942318E-013
 0.943209E-013
 0.944088E-013
 0.944953E-013
 0.945804E-013
 0.946641E-013
 0.947461E-013
 0.948265E-013
 0.949050E-013
 0.949817E-013
 0.950564E-013
 0.951290E-013
 0.951994E-013
 0.952676E-013
 0.953333E-013
 0.953964E-013
 0.954570E-013
 0.955149E-013
 0.955699E-013
 0.956221E-013
 0.956712E-013
 0.957173E-013
 0.957601E-013
 0.957997E-013
 0.958360E-013
 0.958688E-013
 0.958982E-013
 0.959240E-013
 0.959463E-013
 0.959649E-013
 0.959798E-013
 0.959910E-013
 0.959985E-013
 0.960023E-013
 0.960022E-013
 0.959985E-013
 0.959910E-013
 0.959798E-013
 0.959648E-013
 0.959462E-013
 0.959240E-013
 0.958981E-013
 0.958688E-013
 0.958359E-013
 0.957997E-013
 0.957601E-013
 0.957172E-013
 0.956712E-013
 0.956220E-013
 0.955699E-013
 0.955148E-013
 0.954569E-013
 0.953964E-013
 0.953332E-013
 0.952675E-013
 0.951993E-013
 0.951289E-013
 0.950563E-013
 0.949816E-013
 0.949049E-013
 0.948264E-013
 0.947460E-013
 0.946639E-013
 0.945803E-013
 0.944952E-013
 0.944086E-013
 0.943208E-013
 0.942317E-013
 0.941415E-013
 0.940502E-013
 0.939579E-013
 0.938647E-013
 0.937706E-013
 0.936757E-013
 0.935801E-013
 0.934839E-013
 0.933870E-013
 0.932895E-013
 0.931915E-013
 0.930930E-013
 0.929940E-013
 0.928946E-013
 0.927949E-013
 0.926948E-013
 0.925943E-013
 0.924935E-013
 0.923925E-013
 0.922911E-013
 0.921895E-013
 0.920876E-013
 0.919855E-013
 0.918832E-013
 0.917806E-013
 0.916781E-013
 0.915734E-013
 0.914816E-013
 0.913170E-013
 0.914644E-013
 0.913170E-013
 0.909369E-013
 0.909989E-013
 0.909482E-013
 0.909190E-013
 0.908867E-013
 0.908549E-013
 0.908232E-013
 0.907915E-013
 0.907599E-013
 0.907284E-013
 0.906970E-013
 0.906657E-013
 0.906345E-013
 0.906034E-013
 0.905725E-013
 0.905416E-013
 0.905109E-013
 0.904804E-013
 0.904500E-013
 0.904197E-013
 0.903897E-013
 0.903598E-013
 0.903301E-013
 0.903007E-013
 0.902715E-013
 0.902426E-013
 0.902139E-013
 0.901855E-013
 0.901575E-013
 0.901298E-013
 0.901024E-013
 0.900755E-013
 0.900489E-013
 0.900228E-013
 0.899972E-013
 0.899720E-013
 0.899474E-013
 0.899234E-013
 0.898999E-013
 0.898771E-013
 0.898549E-013
 0.898334E-013
 0.898125E-013
 0.897925E-013
 0.897732E-013
 0.897547E-013
 0.897370E-013
 0.897202E-013
 0.897043E-013
 0.896894E-013
 0.896753E-013
 0.896623E-013
 0.896502E-013
 0.896391E-013
 0.896291E-013
 0.896202E-013
 0.896123E-013
 0.896056E-013
 0.895999E-013
 0.895954E-013
 0.895919E-013
 0.895897E-013
 0.895885E-013
 0.895885E-013
 0.895897E-013
 0.895920E-013
 0.895954E-013
 0.895999E-013
 0.896056E-013
 0.896124E-013
 0.896202E-013
 0.896292E-013
 0.896392E-013
 0.896502E-013
 0.896623E-013
 0.896753E-013
 0.896894E-013
 0.897044E-013
 0.897203E-013
 0.897371E-013
 0.897547E-013
 0.897732E-013
 0.897925E-013
 0.898126E-013
 0.898334E-013
 0.898549E-013
 0.898771E-013
 0.899000E-013
 0.899234E-013
 0.899475E-013
 0.899721E-013
 0.899972E-013
 0.900229E-013
 0.900490E-013
 0.900755E-013
 0.901025E-013
 0.901298E-013
 0.901575E-013
 0.901856E-013
 0.902139E-013
 0.902426E-013
 0.902716E-013
 0.903008E-013
 0.903302E-013
 0.903599E-013
 0.903897E-013
 0.904198E-013
 0.904500E-013
 0.904804E-013
 0.905110E-013
 0.905417E-013
 0.905725E-013
 0.906035E-013
 0.906345E-013
 0.906657E-013
 0.906970E-013
 0.907284E-013
 0.907599E-013
 0.907915E-013
 0.908232E-013
 0.908550E-013
 0.908868E-013
 0.909191E-013
 0.909482E-013
 0.909989E-013
 0.909369E-013
 0.913170E-013
 0.914816E-013
 0.909989E-013
 0.911399E-013
 0.911200E-013
 0.911310E-013
 0.911373E-013
 0.911442E-013
 0.911510E-013
 0.911577E-013
 0.911645E-013
 0.911712E-013
 0.911779E-013
 0.911846E-013
 0.911912E-013
 0.911979E-013
 0.912045E-013
 0.912111E-013
 0.912176E-013
 0.912241E-013
 0.912306E-013
 0.912371E-013
 0.912435E-013
 0.912498E-013
 0.912561E-013
 0.912624E-013
 0.912686E-013
 0.912748E-013
 0.912809E-013
 0.912870E-013
 0.912929E-013
 0.912988E-013
 0.913047E-013
 0.913104E-013
 0.913161E-013
 0.913216E-013
 0.913271E-013
 0.913324E-013
 0.913377E-013
 0.913428E-013
 0.913478E-013
 0.913527E-013
 0.913574E-013
 0.913620E-013
 0.913664E-013
 0.913707E-013
 0.913748E-013
 0.913788E-013
 0.913825E-013
 0.913861E-013
 0.913895E-013
 0.913927E-013
 0.913957E-013
 0.913985E-013
 0.914010E-013
 0.914034E-013
 0.914055E-013
 0.914074E-013
 0.914091E-013
 0.914106E-013
 0.914118E-013
 0.914127E-013
 0.914135E-013
 0.914140E-013
 0.914142E-013
 0.914142E-013
 0.914140E-013
 0.914135E-013
 0.914127E-013
 0.914118E-013
 0.914106E-013
 0.914091E-013
 0.914074E-013
 0.914055E-013
 0.914034E-013
 0.914010E-013
 0.913985E-013
 0.913957E-013
 0.913927E-013
 0.913895E-013
 0.913861E-013
 0.913825E-013
 0.913788E-013
 0.913748E-013
 0.913707E-013
 0.913664E-013
 0.913620E-013
 0.913574E-013
 0.913527E-013
 0.913478E-013
 0.913428E-013
 0.913377E-013
 0.913324E-013
 0.913271E-013
 0.913216E-013
 0.913161E-013
 0.913104E-013
 0.913047E-013
 0.912988E-013
 0.912929E-013
 0.912870E-013
 0.912809E-013
 0.912748E-013
 0.912686E-013
 0.912624E-013
 0.912561E-013
 0.912498E-013
 0.912435E-013
 0.912370E-013
 0.912306E-013
 0.912241E-013
 0.912176E-013
 0.912111E-013
 0.912045E-013
 0.911979E-013
 0.911912E-013
 0.911846E-013
 0.911779E-013
 0.911712E-013
 0.911645E-013
 0.911577E-013
 0.911510E-013
 0.911442E-013
 0.911373E-013
 0.911310E-013
 0.911200E-013
 0.911399E-013
 0.909989E-013
 0.914816E-013
 0.915734E-013
 0.909482E-013
 0.911200E-013
 0.910843E-013
 0.910886E-013
 0.910868E-013
 0.910857E-013
 0.910846E-013
 0.910835E-013
 0.910824E-013
 0.910813E-013
 0.910803E-013
 0.910792E-013
 0.910781E-013
 0.910770E-013
 0.910760E-013
 0.910749E-013
 0.910738E-013
 0.910728E-013
 0.910717E-013
 0.910707E-013
 0.910697E-013
 0.910687E-013
 0.910676E-013
 0.910666E-013
 0.910656E-013
 0.910646E-013
 0.910637E-013
 0.910627E-013
 0.910617E-013
 0.910608E-013
 0.910599E-013
 0.910590E-013
 0.910581E-013
 0.910572E-013
 0.910563E-013
 0.910555E-013
 0.910546E-013
 0.910538E-013
 0.910530E-013
 0.910523E-013
 0.910515E-013
 0.910508E-013
 0.910501E-013
 0.910494E-013
 0.910488E-013
 0.910482E-013
 0.910476E-013
 0.910470E-013
 0.910465E-013
 0.910460E-013
 0.910456E-013
 0.910451E-013
 0.910447E-013
 0.910444E-013
 0.910441E-013
 0.910438E-013
 0.910435E-013
 0.910433E-013
 0.910431E-013
 0.910429E-013
 0.910428E-013
 0.910428E-013
 0.910427E-013
 0.910427E-013
 0.910428E-013
 0.910428E-013
 0.910429E-013
 0.910431E-013
 0.910433E-013
 0.910435E-013
 0.910438E-013
 0.910441E-013
 0.910444E-013
 0.910447E-013
 0.910451E-013
 0.910456E-013
 0.910460E-013
 0.910465E-013
 0.910471E-013
 0.910476E-013
 0.910482E-013
 0.910488E-013
 0.910494E-013
 0.910501E-013
 0.910508E-013
 0.910515E-013
 0.910523E-013
 0.910530E-013
 0.910538E-013
 0.910546E-013
 0.910555E-013
 0.910563E-013
 0.910572E-013
 0.910581E-013
 0.910590E-013
 0.910599E-013
 0.910608E-013
 0.910617E-013
 0.910627E-013
 0.910637E-013
 0.910646E-013
 0.910656E-013
 0.910666E-013
 0.910676E-013
 0.910687E-013
 0.910697E-013
 0.910707E-013
 0.910717E-013
 0.910728E-013
 0.910738E-013
 0.910749E-013
 0.910760E-013
 0.910770E-013
 0.910781E-013
 0.910792E-013
 0.910803E-013
 0.910814E-013
 0.910824E-013
 0.910835E-013
 0.910846E-013
 0.910857E-013
 0.910868E-013
 0.910886E-013
 0.910843E-013
 0.911200E-013
 0.909482E-013
 0.915734E-013
 0.916781E-013
 0.909190E-013
 0.911310E-013
 0.910886E-013
 0.910954E-013
 0.910947E-013
 0.910949E-013
 0.910950E-013
 0.910952E-013
 0.910953E-013
 0.910955E-013
 0.910956E-013
 0.910957E-013
 0.910959E-013
 0.910960E-013
 0.910962E-013
 0.910963E-013
 0.910964E-013
 0.910966E-013
 0.910967E-013
 0.910969E-013
 0.910970E-013
 0.910971E-013
 0.910973E-013
 0.910974E-013
 0.910976E-013
 0.910977E-013
 0.910978E-013
 0.910980E-013
 0.910981E-013
 0.910982E-013
 0.910984E-013
 0.910985E-013
 0.910986E-013
 0.910988E-013
 0.910989E-013
 0.910990E-013
 0.910992E-013
 0.910993E-013
 0.910994E-013
 0.910995E-013
 0.910996E-013
 0.910998E-013
 0.910999E-013
 0.911000E-013
 0.911001E-013
 0.911002E-013
 0.911003E-013
 0.911004E-013
 0.911005E-013
 0.911006E-013
 0.911007E-013
 0.911007E-013
 0.911008E-013
 0.911009E-013
 0.911009E-013
 0.911010E-013
 0.911010E-013
 0.911011E-013
 0.911011E-013
 0.911011E-013
 0.911012E-013
 0.911012E-013
 0.911012E-013
 0.911012E-013
 0.911012E-013
 0.911012E-013
 0.911011E-013
 0.911011E-013
 0.911011E-013
 0.911010E-013
 0.911010E-013
 0.911009E-013
 0.911009E-013
 0.911008E-013
 0.911007E-013
 0.911007E-013
 0.911006E-013
 0.911005E-013
 0.911004E-013
 0.911003E-013
 0.911002E-013
 0.911001E-013
 0.911000E-013
 0.910999E-013
 0.910998E-013
 0.910996E-013
 0.910995E-013
 0.910994E-013
 0.910993E-013
 0.910992E-013
 0.910990E-013
 0.910989E-013
 0.910988E-013
 0.910986E-013
 0.910985E-013
 0.910984E-013
 0.910982E-013
 0.910981E-013
 0.910980E-013
 0.910978E-013
 0.910977E-013
 0.910976E-013
 0.910974E-013
 0.910973E-013
 0.910971E-013
 0.910970E-013
 0.910969E-013
 0.910967E-013
 0.910966E-013
 0.910964E-013
 0.910963E-013
 0.910962E-013
 0.910960E-013
 0.910959E-013
 0.910957E-013
 0.910956E-013
 0.910955E-013
 0.910953E-013
 0.910952E-013
 0.910950E-013
 0.910949E-013
 0.910947E-013
 0.910954E-013
 0.910886E-013
 0.911310E-013
 0.909191E-013
 0.916781E-013
 0.917807E-013
 0.908867E-013
 0.911373E-013
 0.910868E-013
 0.910947E-013
 0.910936E-013
 0.910937E-013
 0.910937E-013
 0.910937E-013
 0.910937E-013
 0.910937E-013
 0.910936E-013
 0.910936E-013
 0.910936E-013
 0.910936E-013
 0.910936E-013
 0.910936E-013
 0.910936E-013
 0.910935E-013
 0.910935E-013
 0.910935E-013
 0.910935E-013
 0.910935E-013
 0.910935E-013
 0.910935E-013
 0.910935E-013
 0.910935E-013
 0.910935E-013
 0.910935E-013
 0.910935E-013
 0.910935E-013
 0.910935E-013
 0.910935E-013
 0.910935E-013
 0.910935E-013
 0.910935E-013
 0.910935E-013
 0.910935E-013
 0.910935E-013
 0.910935E-013
 0.910935E-013
 0.910936E-013
 0.910936E-013
 0.910936E-013
 0.910936E-013
 0.910936E-013
 0.910936E-013
 0.910937E-013
 0.910937E-013
 0.910937E-013
 0.910937E-013
 0.910937E-013
 0.910937E-013
 0.910938E-013
 0.910938E-013
 0.910938E-013
 0.910938E-013
 0.910938E-013
 0.910938E-013
 0.910938E-013
 0.910938E-013
 0.910939E-013
 0.910939E-013
 0.910939E-013
 0.910939E-013
 0.910939E-013
 0.910939E-013
 0.910938E-013
 0.910938E-013
 0.910938E-013
 0.910938E-013
 0.910938E-013
 0.910938E-013
 0.910938E-013
 0.910938E-013
 0.910937E-013
 0.910937E-013
 0.910937E-013
 0.910937E-013
 0.910937E-013
 0.910937E-013
 0.910936E-013
 0.910936E-013
 0.910936E-013
 0.910936E-013
 0.910936E-013
 0.910936E-013
 0.910935E-013
 0.910935E-013
 0.910935E-013
 0.910935E-013
 0.910935E-013
 0.910935E-013
 0.910935E-013
 0.910935E-013
 0.910935E-013
 0.910935E-013
 0.910935E-013
 0.910935E-013
 0.910935E-013
 0.910935E-013
 0.910935E-013
 0.910935E-013
 0.910935E-013
 0.910935E-013
 0.910935E-013
 0.910935E-013
 0.910935E-013
 0.910935E-013
 0.910935E-013
 0.910936E-013
 0.910936E-013
 0.910936E-013
 0.910936E-013
 0.910936E-013
 0.910936E-013
 0.910936E-013
 0.910937E-013
 0.910937E-013
 0.910937E-013
 0.910937E-013
 0.910937E-013
 0.910936E-013
 0.910947E-013
 0.910868E-013
 0.911373E-013
 0.908868E-013
 0.917806E-013
 0.918833E-013
 0.908549E-013
 0.911442E-013
 0.910857E-013
 0.910949E-013
 0.910937E-013
 0.910939E-013
 0.910938E-013
 0.910938E-013
 0.910938E-013
 0.910938E-013
 0.910938E-013
 0.910939E-013
 0.910939E-013
 0.910939E-013
 0.910939E-013
 0.910939E-013
 0.910939E-013
 0.910939E-013
 0.910939E-013
 0.910939E-013
 0.910939E-013
 0.910939E-013
 0.910939E-013
 0.910939E-013
 0.910939E-013
 0.910939E-013
 0.910940E-013
 0.910940E-013
 0.910940E-013
 0.910940E-013
 0.910940E-013
 0.910940E-013
 0.910941E-013
 0.910941E-013
 0.910941E-013
 0.910941E-013
 0.910942E-013
 0.910942E-013
 0.910942E-013
 0.910943E-013
 0.910943E-013
 0.910943E-013
 0.910943E-013
 0.910944E-013
 0.910944E-013
 0.910944E-013
 0.910945E-013
 0.910945E-013
 0.910945E-013
 0.910946E-013
 0.910946E-013
 0.910946E-013
 0.910947E-013
 0.910947E-013
 0.910947E-013
 0.910947E-013
 0.910948E-013
 0.910948E-013
 0.910948E-013
 0.910948E-013
 0.910948E-013
 0.910948E-013
 0.910948E-013
 0.910948E-013
 0.910948E-013
 0.910948E-013
 0.910948E-013
 0.910948E-013
 0.910948E-013
 0.910948E-013
 0.910947E-013
 0.910947E-013
 0.910947E-013
 0.910947E-013
 0.910946E-013
 0.910946E-013
 0.910946E-013
 0.910945E-013
 0.910945E-013
 0.910945E-013
 0.910945E-013
 0.910944E-013
 0.910944E-013
 0.910944E-013
 0.910943E-013
 0.910943E-013
 0.910943E-013
 0.910942E-013
 0.910942E-013
 0.910942E-013
 0.910941E-013
 0.910941E-013
 0.910941E-013
 0.910941E-013
 0.910941E-013
 0.910940E-013
 0.910940E-013
 0.910940E-013
 0.910940E-013
 0.910940E-013
 0.910940E-013
 0.910939E-013
 0.910939E-013
 0.910939E-013
 0.910939E-013
 0.910939E-013
 0.910939E-013
 0.910939E-013
 0.910939E-013
 0.910939E-013
 0.910939E-013
 0.910939E-013
 0.910939E-013
 0.910939E-013
 0.910939E-013
 0.910939E-013
 0.910939E-013
 0.910938E-013
 0.910938E-013
 0.910938E-013
 0.910939E-013
 0.910937E-013
 0.910949E-013
 0.910857E-013
 0.911442E-013
 0.908550E-013
 0.918832E-013
 0.919856E-013
 0.908232E-013
 0.911510E-013
 0.910846E-013
 0.910950E-013
 0.910937E-013
 0.910938E-013
 0.910938E-013
 0.910938E-013
 0.910938E-013
 0.910938E-013
 0.910938E-013
 0.910938E-013
 0.910938E-013
 0.910938E-013
 0.910938E-013
 0.910938E-013
 0.910938E-013
 0.910939E-013
 0.910939E-013
 0.910939E-013
 0.910939E-013
 0.910939E-013
 0.910939E-013
 0.910939E-013
 0.910939E-013
 0.910939E-013
 0.910939E-013
 0.910940E-013
 0.910940E-013
 0.910940E-013
 0.910940E-013
 0.910940E-013
 0.910941E-013
 0.910941E-013
 0.910941E-013
 0.910941E-013
 0.910942E-013
 0.910942E-013
 0.910942E-013
 0.910943E-013
 0.910943E-013
 0.910943E-013
 0.910944E-013
 0.910944E-013
 0.910945E-013
 0.910945E-013
 0.910945E-013
 0.910946E-013
 0.910946E-013
 0.910946E-013
 0.910947E-013
 0.910947E-013
 0.910947E-013
 0.910948E-013
 0.910948E-013
 0.910948E-013
 0.910948E-013
 0.910949E-013
 0.910949E-013
 0.910949E-013
 0.910949E-013
 0.910949E-013
 0.910949E-013
 0.910949E-013
 0.910949E-013
 0.910949E-013
 0.910949E-013
 0.910949E-013
 0.910949E-013
 0.910948E-013
 0.910948E-013
 0.910948E-013
 0.910948E-013
 0.910947E-013
 0.910947E-013
 0.910947E-013
 0.910946E-013
 0.910946E-013
 0.910946E-013
 0.910945E-013
 0.910945E-013
 0.910945E-013
 0.910944E-013
 0.910944E-013
 0.910943E-013
 0.910943E-013
 0.910943E-013
 0.910942E-013
 0.910942E-013
 0.910942E-013
 0.910941E-013
 0.910941E-013
 0.910941E-013
 0.910941E-013
 0.910940E-013
 0.910940E-013
 0.910940E-013
 0.910940E-013
 0.910940E-013
 0.910939E-013
 0.910939E-013
 0.910939E-013
 0.910939E-013
 0.910939E-013
 0.910939E-013
 0.910939E-013
 0.910939E-013
 0.910939E-013
 0.910939E-013
 0.910939E-013
 0.910938E-013
 0.910938E-013
 0.910938E-013
 0.910938E-013
 0.910938E-013
 0.910938E-013
 0.910938E-013
 0.910938E-013
 0.910938E-013
 0.910938E-013
 0.910938E-013
 0.910937E-013
 0.910950E-013
 0.910846E-013
 0.911510E-013
 0.908232E-013
 0.919855E-013
 0.920877E-013
 0.907915E-013
 0.911577E-013
 0.910835E-013
 0.910952E-013
 0.910937E-013
 0.910938E-013
 0.910938E-013
 0.910938E-013
 0.910938E-013
 0.910938E-013
 0.910938E-013
 0.910938E-013
 0.910938E-013
 0.910938E-013
 0.910938E-013
 0.910938E-013
 0.910939E-013
 0.910939E-013
 0.910939E-013
 0.910939E-013
 0.910939E-013
 0.910939E-013
 0.910939E-013
 0.910939E-013
 0.910939E-013
 0.910939E-013
 0.910940E-013
 0.910940E-013
 0.910940E-013
 0.910940E-013
 0.910941E-013
 0.910941E-013
 0.910941E-013
 0.910941E-013
 0.910942E-013
 0.910942E-013
 0.910942E-013
 0.910943E-013
 0.910943E-013
 0.910944E-013
 0.910944E-013
 0.910944E-013
 0.910945E-013
 0.910945E-013
 0.910946E-013
 0.910946E-013
 0.910947E-013
 0.910947E-013
 0.910948E-013
 0.910948E-013
 0.910948E-013
 0.910949E-013
 0.910949E-013
 0.910950E-013
 0.910950E-013
 0.910950E-013
 0.910950E-013
 0.910951E-013
 0.910951E-013
 0.910951E-013
 0.910951E-013
 0.910951E-013
 0.910951E-013
 0.910951E-013
 0.910951E-013
 0.910951E-013
 0.910951E-013
 0.910951E-013
 0.910951E-013
 0.910950E-013
 0.910950E-013
 0.910950E-013
 0.910950E-013
 0.910949E-013
 0.910949E-013
 0.910948E-013
 0.910948E-013
 0.910948E-013
 0.910947E-013
 0.910947E-013
 0.910946E-013
 0.910946E-013
 0.910945E-013
 0.910945E-013
 0.910944E-013
 0.910944E-013
 0.910944E-013
 0.910943E-013
 0.910943E-013
 0.910942E-013
 0.910942E-013
 0.910942E-013
 0.910941E-013
 0.910941E-013
 0.910941E-013
 0.910941E-013
 0.910940E-013
 0.910940E-013
 0.910940E-013
 0.910940E-013
 0.910940E-013
 0.910939E-013
 0.910939E-013
 0.910939E-013
 0.910939E-013
 0.910939E-013
 0.910939E-013
 0.910939E-013
 0.910939E-013
 0.910939E-013
 0.910939E-013
 0.910938E-013
 0.910938E-013
 0.910938E-013
 0.910938E-013
 0.910938E-013
 0.910938E-013
 0.910938E-013
 0.910938E-013
 0.910938E-013
 0.910938E-013
 0.910937E-013
 0.910952E-013
 0.910835E-013
 0.911577E-013
 0.907915E-013
 0.920876E-013
 0.921896E-013
 0.907599E-013
 0.911645E-013
 0.910824E-013
 0.910953E-013
 0.910937E-013
 0.910938E-013
 0.910938E-013
 0.910938E-013
 0.910938E-013
 0.910938E-013
 0.910938E-013
 0.910938E-013
 0.910938E-013
 0.910938E-013
 0.910938E-013
 0.910939E-013
 0.910939E-013
 0.910939E-013
 0.910939E-013
 0.910939E-013
 0.910939E-013
 0.910939E-013
 0.910939E-013
 0.910939E-013
 0.910940E-013
 0.910940E-013
 0.910940E-013
 0.910940E-013
 0.910940E-013
 0.910941E-013
 0.910941E-013
 0.910941E-013
 0.910942E-013
 0.910942E-013
 0.910942E-013
 0.910943E-013
 0.910943E-013
 0.910944E-013
 0.910944E-013
 0.910945E-013
 0.910945E-013
 0.910946E-013
 0.910946E-013
 0.910947E-013
 0.910947E-013
 0.910948E-013
 0.910948E-013
 0.910949E-013
 0.910949E-013
 0.910950E-013
 0.910950E-013
 0.910951E-013
 0.910951E-013
 0.910952E-013
 0.910952E-013
 0.910952E-013
 0.910953E-013
 0.910953E-013
 0.910953E-013
 0.910953E-013
 0.910954E-013
 0.910954E-013
 0.910954E-013
 0.910954E-013
 0.910954E-013
 0.910954E-013
 0.910953E-013
 0.910953E-013
 0.910953E-013
 0.910953E-013
 0.910952E-013
 0.910952E-013
 0.910952E-013
 0.910951E-013
 0.910951E-013
 0.910950E-013
 0.910950E-013
 0.910949E-013
 0.910949E-013
 0.910948E-013
 0.910948E-013
 0.910947E-013
 0.910947E-013
 0.910946E-013
 0.910946E-013
 0.910945E-013
 0.910945E-013
 0.910944E-013
 0.910944E-013
 0.910943E-013
 0.910943E-013
 0.910942E-013
 0.910942E-013
 0.910942E-013
 0.910941E-013
 0.910941E-013
 0.910941E-013
 0.910940E-013
 0.910940E-013
 0.910940E-013
 0.910940E-013
 0.910940E-013
 0.910939E-013
 0.910939E-013
 0.910939E-013
 0.910939E-013
 0.910939E-013
 0.910939E-013
 0.910939E-013
 0.910939E-013
 0.910939E-013
 0.910939E-013
 0.910939E-013
 0.910938E-013
 0.910938E-013
 0.910938E-013
 0.910938E-013
 0.910938E-013
 0.910938E-013
 0.910938E-013
 0.910939E-013
 0.910937E-013
 0.910953E-013
 0.910824E-013
 0.911645E-013
 0.907599E-013
 0.921895E-013
 0.922912E-013
 0.907284E-013
 0.911712E-013
 0.910813E-013
 0.910955E-013
 0.910937E-013
 0.910938E-013
 0.910938E-013
 0.910938E-013
 0.910938E-013
 0.910938E-013
 0.910938E-013
 0.910938E-013
 0.910938E-013
 0.910938E-013
 0.910939E-013
 0.910939E-013
 0.910939E-013
 0.910939E-013
 0.910939E-013
 0.910939E-013
 0.910939E-013
 0.910939E-013
 0.910939E-013
 0.910940E-013
 0.910940E-013
 0.910940E-013
 0.910940E-013
 0.910941E-013
 0.910941E-013
 0.910941E-013
 0.910941E-013
 0.910942E-013
 0.910942E-013
 0.910943E-013
 0.910943E-013
 0.910944E-013
 0.910944E-013
 0.910945E-013
 0.910945E-013
 0.910946E-013
 0.910946E-013
 0.910947E-013
 0.910948E-013
 0.910948E-013
 0.910949E-013
 0.910949E-013
 0.910950E-013
 0.910951E-013