# vtk DataFile Version 3.0
Solution data
ASCII
DATASET STRUCTURED_GRID
DIMENSIONS 128 128 1
POINTS 16384  double
      0.000004      0.000004      0.000000
      0.000012      0.000004      0.000000
      0.000020      0.000004      0.000000
      0.000027      0.000004      0.000000
      0.000035      0.000004      0.000000
      0.000043      0.000004      0.000000
      0.000051      0.000004      0.000000
      0.000059      0.000004      0.000000
      0.000066      0.000004      0.000000
      0.000074      0.000004      0.000000
      0.000082      0.000004      0.000000
      0.000090      0.000004      0.000000
      0.000098      0.000004      0.000000
      0.000105      0.000004      0.000000
      0.000113      0.000004      0.000000
      0.000121      0.000004      0.000000
      0.000129      0.000004      0.000000
      0.000137      0.000004      0.000000
      0.000145      0.000004      0.000000
      0.000152      0.000004      0.000000
      0.000160      0.000004      0.000000
      0.000168      0.000004      0.000000
      0.000176      0.000004      0.000000
      0.000184      0.000004      0.000000
      0.000191      0.000004      0.000000
      0.000199      0.000004      0.000000
      0.000207      0.000004      0.000000
      0.000215      0.000004      0.000000
      0.000223      0.000004      0.000000
      0.000230      0.000004      0.000000
      0.000238      0.000004      0.000000
      0.000246      0.000004      0.000000
      0.000254      0.000004      0.000000
      0.000262      0.000004      0.000000
      0.000270      0.000004      0.000000
      0.000277      0.000004      0.000000
      0.000285      0.000004      0.000000
      0.000293      0.000004      0.000000
      0.000301      0.000004      0.000000
      0.000309      0.000004      0.000000
      0.000316      0.000004      0.000000
      0.000324      0.000004      0.000000
      0.000332      0.000004      0.000000
      0.000340      0.000004      0.000000
      0.000348      0.000004      0.000000
      0.000355      0.000004      0.000000
      0.000363      0.000004      0.000000
      0.000371      0.000004      0.000000
      0.000379      0.000004      0.000000
      0.000387      0.000004      0.000000
      0.000395      0.000004      0.000000
      0.000402      0.000004      0.000000
      0.000410      0.000004      0.000000
      0.000418      0.000004      0.000000
      0.000426      0.000004      0.000000
      0.000434      0.000004      0.000000
      0.000441      0.000004      0.000000
      0.000449      0.000004      0.000000
      0.000457      0.000004      0.000000
      0.000465      0.000004      0.000000
      0.000473      0.000004      0.000000
      0.000480      0.000004      0.000000
      0.000488      0.000004      0.000000
      0.000496      0.000004      0.000000
      0.000504      0.000004      0.000000
      0.000512      0.000004      0.000000
      0.000520      0.000004      0.000000
      0.000527      0.000004      0.000000
      0.000535      0.000004      0.000000
      0.000543      0.000004      0.000000
      0.000551      0.000004      0.000000
      0.000559      0.000004      0.000000
      0.000566      0.000004      0.000000
      0.000574      0.000004      0.000000
      0.000582      0.000004      0.000000
      0.000590      0.000004      0.000000
      0.000598      0.000004      0.000000
      0.000605      0.000004      0.000000
      0.000613      0.000004      0.000000
      0.000621      0.000004      0.000000
      0.000629      0.000004      0.000000
      0.000637      0.000004      0.000000
      0.000645      0.000004      0.000000
      0.000652      0.000004      0.000000
      0.000660      0.000004      0.000000
      0.000668      0.000004      0.000000
      0.000676      0.000004      0.000000
      0.000684      0.000004      0.000000
      0.000691      0.000004      0.000000
      0.000699      0.000004      0.000000
      0.000707      0.000004      0.000000
      0.000715      0.000004      0.000000
      0.000723      0.000004      0.000000
      0.000730      0.000004      0.000000
      0.000738      0.000004      0.000000
      0.000746      0.000004      0.000000
      0.000754      0.000004      0.000000
      0.000762      0.000004      0.000000
      0.000770      0.000004      0.000000
      0.000777      0.000004      0.000000
      0.000785      0.000004      0.000000
      0.000793      0.000004      0.000000
      0.000801      0.000004      0.000000
      0.000809      0.000004      0.000000
      0.000816      0.000004      0.000000
      0.000824      0.000004      0.000000
      0.000832      0.000004      0.000000
      0.000840      0.000004      0.000000
      0.000848      0.000004      0.000000
      0.000855      0.000004      0.000000
      0.000863      0.000004      0.000000
      0.000871      0.000004      0.000000
      0.000879      0.000004      0.000000
      0.000887      0.000004      0.000000
      0.000895      0.000004      0.000000
      0.000902      0.000004      0.000000
      0.000910      0.000004      0.000000
      0.000918      0.000004      0.000000
      0.000926      0.000004      0.000000
      0.000934      0.000004      0.000000
      0.000941      0.000004      0.000000
      0.000949      0.000004      0.000000
      0.000957      0.000004      0.000000
      0.000965      0.000004      0.000000
      0.000973      0.000004      0.000000
      0.000980      0.000004      0.000000
      0.000988      0.000004      0.000000
      0.000996      0.000004      0.000000
      0.000004      0.000012      0.000000
      0.000012      0.000012      0.000000
      0.000020      0.000012      0.000000
      0.000027      0.000012      0.000000
      0.000035      0.000012      0.000000
      0.000043      0.000012      0.000000
      0.000051      0.000012      0.000000
      0.000059      0.000012      0.000000
      0.000066      0.000012      0.000000
      0.000074      0.000012      0.000000
      0.000082      0.000012      0.000000
      0.000090      0.000012      0.000000
      0.000098      0.000012      0.000000
      0.000105      0.000012      0.000000
      0.000113      0.000012      0.000000
      0.000121      0.000012      0.000000
      0.000129      0.000012      0.000000
      0.000137      0.000012      0.000000
      0.000145      0.000012      0.000000
      0.000152      0.000012      0.000000
      0.000160      0.000012      0.000000
      0.000168      0.000012      0.000000
      0.000176      0.000012      0.000000
      0.000184      0.000012      0.000000
      0.000191      0.000012      0.000000
      0.000199      0.000012      0.000000
      0.000207      0.000012      0.000000
      0.000215      0.000012      0.000000
      0.000223      0.000012      0.000000
      0.000230      0.000012      0.000000
      0.000238      0.000012      0.000000
      0.000246      0.000012      0.000000
      0.000254      0.000012      0.000000
      0.000262      0.000012      0.000000
      0.000270      0.000012      0.000000
      0.000277      0.000012      0.000000
      0.000285      0.000012      0.000000
      0.000293      0.000012      0.000000
      0.000301      0.000012      0.000000
      0.000309      0.000012      0.000000
      0.000316      0.000012      0.000000
      0.000324      0.000012      0.000000
      0.000332      0.000012      0.000000
      0.000340      0.000012      0.000000
      0.000348      0.000012      0.000000
      0.000355      0.000012      0.000000
      0.000363      0.000012      0.000000
      0.000371      0.000012      0.000000
      0.000379      0.000012      0.000000
      0.000387      0.000012      0.000000
      0.000395      0.000012      0.000000
      0.000402      0.000012      0.000000
      0.000410      0.000012      0.000000
      0.000418      0.000012      0.000000
      0.000426      0.000012      0.000000
      0.000434      0.000012      0.000000
      0.000441      0.000012      0.000000
      0.000449      0.000012      0.000000
      0.000457      0.000012      0.000000
      0.000465      0.000012      0.000000
      0.000473      0.000012      0.000000
      0.000480      0.000012      0.000000
      0.000488      0.000012      0.000000
      0.000496      0.000012      0.000000
      0.000504      0.000012      0.000000
      0.000512      0.000012      0.000000
      0.000520      0.000012      0.000000
      0.000527      0.000012      0.000000
      0.000535      0.000012      0.000000
      0.000543      0.000012      0.000000
      0.000551      0.000012      0.000000
      0.000559      0.000012      0.000000
      0.000566      0.000012      0.000000
      0.000574      0.000012      0.000000
      0.000582      0.000012      0.000000
      0.000590      0.000012      0.000000
      0.000598      0.000012      0.000000
      0.000605      0.000012      0.000000
      0.000613      0.000012      0.000000
      0.000621      0.000012      0.000000
      0.000629      0.000012      0.000000
      0.000637      0.000012      0.000000
      0.000645      0.000012      0.000000
      0.000652      0.000012      0.000000
      0.000660      0.000012      0.000000
      0.000668      0.000012      0.000000
      0.000676      0.000012      0.000000
      0.000684      0.000012      0.000000
      0.000691      0.000012      0.000000
      0.000699      0.000012      0.000000
      0.000707      0.000012      0.000000
      0.000715      0.000012      0.000000
      0.000723      0.000012      0.000000
      0.000730      0.000012      0.000000
      0.000738      0.000012      0.000000
      0.000746      0.000012      0.000000
      0.000754      0.000012      0.000000
      0.000762      0.000012      0.000000
      0.000770      0.000012      0.000000
      0.000777      0.000012      0.000000
      0.000785      0.000012      0.000000
[...]
POINT_DATA 16384
SCALARS rhoe double
LOOKUP_TABLE default
 0.916282E-013
 0.912551E-013
 0.915395E-013
 0.915596E-013
 0.916692E-013
 0.917525E-013
 0.918422E-013
 0.919301E-013
 0.920181E-013
 0.921058E-013
 0.921932E-013
 0.922803E-013
 0.923672E-013
 0.924537E-013
 0.925399E-013
 0.926257E-013
 0.927111E-013
 0.927962E-013
 0.928808E-013
 0.929650E-013
 0.930487E-013
 0.931318E-013
 0.932144E-013
 0.932964E-013
 0.933777E-013
 0.934584E-013
 0.935383E-013
 0.936174E-013
 0.936956E-013
 0.937730E-013
 0.938494E-013
 0.939247E-013
 0.939989E-013
 0.940719E-013
 0.941437E-013
 0.942142E-013
 0.942833E-013
 0.943509E-013
 0.944169E-013
 0.944814E-013
 0.945440E-013
 0.946049E-013
 0.946639E-013
 0.947210E-013
 0.947759E-013
 0.948288E-013
 0.948794E-013
 0.949277E-013
 0.949736E-013
 0.950171E-013
 0.950581E-013
 0.950965E-013
 0.951321E-013
 0.951651E-013
 0.951953E-013
 0.952226E-013
 0.952470E-013
 0.952685E-013
 0.952870E-013
 0.953024E-013
 0.953148E-013
 0.953241E-013
 0.953304E-013
 0.953335E-013
 0.953335E-013
 0.953304E-013
 0.953241E-013
 0.953148E-013
 0.953024E-013
 0.952870E-013
 0.952685E-013
 0.952470E-013
 0.952226E-013
 0.951953E-013
 0.951651E-013
 0.951322E-013
 0.950965E-013
 0.950581E-013
 0.950171E-013
 0.949737E-013
 0.949277E-013
 0.948794E-013
 0.948288E-013
 0.947759E-013
 0.947210E-013
 0.946639E-013
 0.946049E-013
 0.945441E-013
 0.944814E-013
 0.944170E-013
 0.943509E-013
 0.942833E-013
 0.942142E-013
 0.941438E-013
 0.940720E-013
 0.939989E-013
 0.939247E-013
 0.938494E-013
 0.937730E-013
 0.936957E-013
 0.936174E-013
 0.935383E-013
 0.934584E-013
 0.933778E-013
 0.932964E-013
 0.932144E-013
 0.931318E-013
 0.930487E-013
 0.929650E-013
 0.928808E-013
 0.927962E-013
 0.927112E-013
 0.926257E-013
 0.925399E-013
 0.924537E-013
 0.923672E-013
 0.922803E-013
 0.921932E-013
 0.921058E-013
 0.920181E-013
 0.919301E-013
 0.918422E-013
 0.917525E-013
 0.916692E-013
 0.915596E-013
 0.915395E-013
 0.912551E-013
 0.916282E-013
 0.912551E-013
 0.907864E-013
 0.909449E-013
 0.908076E-013
 0.907826E-013
 0.907224E-013
 0.906718E-013
 0.906192E-013
 0.905672E-013
 0.905152E-013
 0.904634E-013
 0.904118E-013
 0.903604E-013
 0.903091E-013
 0.902581E-013
 0.902072E-013
 0.901566E-013
 0.901062E-013
 0.900561E-013
 0.900062E-013
 0.899567E-013
 0.899074E-013
 0.898584E-013
 0.898099E-013
 0.897617E-013
 0.897139E-013
 0.896665E-013
 0.896196E-013
 0.895732E-013
 0.895274E-013
 0.894821E-013
 0.894374E-013
 0.893934E-013
 0.893501E-013
 0.893075E-013
 0.892657E-013
 0.892247E-013
 0.891846E-013
 0.891454E-013
 0.891072E-013
 0.890700E-013
 0.890338E-013
 0.889988E-013
 0.889649E-013
 0.889323E-013
 0.889009E-013
 0.888709E-013
 0.888422E-013
 0.888149E-013
 0.887890E-013
 0.887647E-013
 0.887419E-013
 0.887207E-013
 0.887011E-013
 0.886832E-013
 0.886670E-013
 0.886525E-013
 0.886397E-013
 0.886287E-013
 0.886195E-013
 0.886122E-013
 0.886066E-013
 0.886029E-013
 0.886011E-013
 0.886011E-013
 0.886029E-013
 0.886066E-013
 0.886122E-013
 0.886195E-013
 0.886287E-013
 0.886397E-013
 0.886525E-013
 0.886670E-013
 0.886832E-013
 0.887011E-013
 0.887207E-013
 0.887419E-013
 0.887647E-013
 0.887890E-013
 0.888149E-013
 0.888422E-013
 0.888709E-013
 0.889009E-013
 0.889323E-013
 0.889650E-013
 0.889988E-013
 0.890338E-013
 0.890700E-013
 0.891072E-013
 0.891454E-013
 0.891846E-013
 0.892247E-013
 0.892657E-013
 0.893075E-013
 0.893501E-013
 0.893934E-013
 0.894375E-013
 0.894821E-013
 0.895274E-013
 0.895733E-013
 0.896196E-013
 0.896665E-013
 0.897139E-013
 0.897617E-013
 0.898099E-013
 0.898585E-013
 0.899074E-013
 0.899567E-013
 0.900063E-013
 0.900561E-013
 0.901062E-013
 0.901566E-013
 0.902072E-013
 0.902581E-013
 0.903091E-013
 0.903604E-013
 0.904118E-013
 0.904634E-013
 0.905152E-013
 0.905672E-013
 0.906192E-013
 0.906719E-013
 0.907224E-013
 0.907826E-013
 0.908076E-013
 0.909449E-013
 0.907864E-013
 0.912551E-013
 0.915395E-013
 0.909449E-013
 0.912731E-013
 0.911761E-013
 0.912390E-013
 0.912516E-013
 0.912776E-013
 0.913004E-013
 0.913238E-013
 0.913470E-013
 0.913701E-013
 0.913932E-013
 0.914161E-013
 0.914390E-013
 0.914618E-013
 0.914845E-013
 0.915071E-013
 0.915295E-013
 0.915519E-013
 0.915741E-013
 0.915962E-013
 0.916182E-013
 0.916400E-013
 0.916617E-013
 0.916832E-013
 0.917045E-013
 0.917256E-013
 0.917465E-013
 0.917672E-013
 0.917876E-013
 0.918078E-013
 0.918277E-013
 0.918473E-013
 0.918666E-013
 0.918856E-013
 0.919042E-013
 0.919225E-013
 0.919404E-013
 0.919578E-013
 0.919749E-013
 0.919915E-013
 0.920076E-013
 0.920232E-013
 0.920382E-013
 0.920528E-013
 0.920668E-013
 0.920801E-013
 0.920929E-013
 0.921051E-013
 0.921166E-013
 0.921274E-013
 0.921376E-013
 0.921470E-013
 0.921557E-013
 0.921637E-013
 0.921710E-013
 0.921774E-013
 0.921831E-013
 0.921880E-013
 0.921921E-013
 0.921954E-013
 0.921978E-013
 0.921995E-013
 0.922003E-013
 0.922003E-013
 0.921995E-013
 0.921978E-013
 0.921954E-013
 0.921921E-013
 0.921880E-013
 0.921831E-013
 0.921774E-013
 0.921709E-013
 0.921637E-013
 0.921557E-013
 0.921470E-013
 0.921376E-013
 0.921274E-013
 0.921166E-013
 0.921051E-013
 0.920929E-013
 0.920801E-013
 0.920667E-013
 0.920528E-013
 0.920382E-013
 0.920231E-013
 0.920075E-013
 0.919914E-013
 0.919749E-013
 0.919578E-013
 0.919404E-013
 0.919225E-013
 0.919042E-013
 0.918856E-013
 0.918666E-013
 0.918473E-013
 0.918277E-013
 0.918078E-013
 0.917876E-013
 0.917672E-013
 0.917465E-013
 0.917256E-013
 0.917045E-013
 0.916832E-013
 0.916617E-013
 0.916400E-013
 0.916182E-013
 0.915962E-013
 0.915741E-013
 0.915519E-013
 0.915295E-013
 0.915070E-013
 0.914844E-013
 0.914618E-013
 0.914390E-013
 0.914161E-013
 0.913931E-013
 0.913701E-013
 0.913470E-013
 0.913238E-013
 0.913004E-013
 0.912776E-013
 0.912516E-013
 0.912390E-013
 0.911761E-013
 0.912731E-013
 0.909449E-013
 0.915395E-013
 0.915596E-013
 0.908076E-013
 0.911761E-013
 0.910161E-013
 0.910578E-013
 0.910355E-013
 0.910306E-013
 0.910216E-013
 0.910134E-013
 0.910052E-013
 0.909970E-013
 0.909888E-013
 0.909807E-013
 0.909725E-013
 0.909645E-013
 0.909564E-013
 0.909484E-013
 0.909404E-013
 0.909325E-013
 0.909246E-013
 0.909167E-013
 0.909089E-013
 0.909012E-013
 0.908935E-013
 0.908859E-013
 0.908783E-013
 0.908708E-013
 0.908634E-013
 0.908561E-013
 0.908488E-013
 0.908416E-013
 0.908346E-013
 0.908276E-013
 0.908208E-013
 0.908140E-013
 0.908074E-013
 0.908009E-013
 0.907946E-013
 0.907884E-013
 0.907824E-013
 0.907765E-013
 0.907708E-013
 0.907652E-013
 0.907599E-013
 0.907547E-013
 0.907498E-013
 0.907450E-013
 0.907405E-013
 0.907362E-013
 0.907321E-013
 0.907282E-013
 0.907246E-013
 0.907213E-013
 0.907182E-013
 0.907153E-013
 0.907128E-013
 0.907105E-013
 0.907085E-013
 0.907067E-013
 0.907053E-013
 0.907041E-013
 0.907032E-013
 0.907027E-013
 0.907024E-013
 0.907024E-013
 0.907027E-013
 0.907032E-013
 0.907041E-013
 0.907053E-013
 0.907067E-013
 0.907085E-013
 0.907105E-013
 0.907128E-013
 0.907153E-013
 0.907182E-013
 0.907213E-013
 0.907246E-013
 0.907282E-013
 0.907321E-013
 0.907362E-013
 0.907405E-013
 0.907450E-013
 0.907498E-013
 0.907547E-013
 0.907599E-013
 0.907652E-013
 0.907708E-013
 0.907765E-013
 0.907824E-013
 0.907884E-013
 0.907946E-013
 0.908009E-013
 0.908074E-013
 0.908140E-013
 0.908208E-013
 0.908276E-013
 0.908346E-013
 0.908416E-013
 0.908488E-013
 0.908561E-013
 0.908634E-013
 0.908708E-013
 0.908783E-013
 0.908859E-013
 0.908935E-013
 0.909012E-013
 0.909089E-013
 0.909167E-013
 0.909246E-013
 0.909325E-013
 0.909404E-013
 0.909484E-013
 0.909564E-013
 0.909645E-013
 0.909725E-013
 0.909807E-013
 0.909888E-013
 0.909970E-013
 0.910052E-013
 0.910135E-013
 0.910216E-013
 0.910306E-013
 0.910355E-013
 0.910578E-013
 0.910161E-013
 0.911761E-013
 0.908076E-013
 0.915596E-013
 0.916692E-013
 0.907826E-013
 0.912390E-013
 0.910578E-013
 0.911211E-013
 0.911065E-013
 0.911130E-013
 0.911146E-013
 0.911172E-013
 0.911196E-013
 0.911220E-013
 0.911244E-013
 0.911268E-013
 0.911292E-013
 0.911315E-013
 0.911339E-013
 0.911362E-013
 0.911386E-013
 0.911409E-013
 0.911432E-013
 0.911455E-013
 0.911478E-013
 0.911501E-013
 0.911523E-013
 0.911546E-013
 0.911568E-013
 0.911590E-013
 0.911612E-013
 0.911633E-013
 0.911654E-013
 0.911675E-013
 0.911696E-013
 0.911717E-013
 0.911737E-013
 0.911756E-013
 0.911776E-013
 0.911795E-013
 0.911814E-013
 0.911832E-013
 0.911849E-013
 0.911867E-013
 0.911883E-013
 0.911900E-013
 0.911915E-013
 0.911931E-013
 0.911945E-013
 0.911959E-013
 0.911972E-013
 0.911985E-013
 0.911997E-013
 0.912008E-013
 0.912019E-013
 0.912029E-013
 0.912038E-013
 0.912046E-013
 0.912054E-013
 0.912061E-013
 0.912067E-013
 0.912072E-013
 0.912076E-013
 0.912079E-013
 0.912082E-013
 0.912084E-013
 0.912084E-013
 0.912084E-013
 0.912084E-013
 0.912082E-013
 0.912079E-013
 0.912076E-013
 0.912072E-013
 0.912066E-013
 0.912061E-013
 0.912054E-013
 0.912046E-013
 0.912038E-013
 0.912029E-013
 0.912019E-013
 0.912008E-013
 0.911997E-013
 0.911985E-013
 0.911972E-013
 0.911959E-013
 0.911945E-013
 0.911931E-013
 0.911915E-013
 0.911900E-013
 0.911883E-013
 0.911867E-013
 0.911849E-013
 0.911832E-013
 0.911814E-013
 0.911795E-013
 0.911776E-013
 0.911756E-013
 0.911737E-013
 0.911717E-013
 0.911696E-013
 0.911675E-013
 0.911654E-013
 0.911633E-013
 0.911612E-013
 0.911590E-013
 0.911568E-013
 0.911546E-013
 0.911523E-013
 0.911501E-013
 0.911478E-013
 0.911455E-013
 0.911432E-013
 0.911409E-013
 0.911386E-013
 0.911362E-013
 0.911339E-013
 0.911315E-013
 0.911292E-013
 0.911268E-013
 0.911244E-013
 0.911220E-013
 0.911196E-013
 0.911172E-013
 0.911146E-013
 0.911130E-013
 0.911065E-013
 0.911211E-013
 0.910578E-013
 0.912390E-013
 0.907826E-013
 0.916692E-013
 0.917525E-013
 0.907224E-013
 0.912516E-013
 0.910355E-013
 0.911065E-013
 0.910859E-013
 0.910901E-013
 0.910885E-013
 0.910881E-013
 0.910875E-013
 0.910869E-013
 0.910863E-013
 0.910857E-013
 0.910851E-013
 0.910845E-013
 0.910839E-013
 0.910833E-013
 0.910827E-013
 0.910822E-013
 0.910816E-013
 0.910810E-013
 0.910804E-013
 0.910799E-013
 0.910793E-013
 0.910788E-013
 0.910782E-013
 0.910777E-013
 0.910771E-013
 0.910766E-013
 0.910761E-013
 0.910755E-013
 0.910750E-013
 0.910745E-013
 0.910740E-013
 0.910735E-013
 0.910731E-013
 0.910726E-013
 0.910721E-013
 0.910717E-013
 0.910713E-013
 0.910708E-013
 0.910704E-013
 0.910700E-013
 0.910696E-013
 0.910693E-013
 0.910689E-013
 0.910686E-013
 0.910682E-013
 0.910679E-013
 0.910676E-013
 0.910673E-013
 0.910671E-013
 0.910668E-013
 0.910666E-013
 0.910664E-013
 0.910662E-013
 0.910661E-013
 0.910659E-013
 0.910658E-013
 0.910657E-013
 0.910656E-013
 0.910655E-013
 0.910655E-013
 0.910655E-013
 0.910655E-013
 0.910655E-013
 0.910655E-013
 0.910656E-013
 0.910657E-013
 0.910658E-013
 0.910659E-013
 0.910661E-013
 0.910662E-013
 0.910664E-013
 0.910666E-013
 0.910668E-013
 0.910671E-013
 0.910673E-013
 0.910676E-013
 0.910679E-013
 0.910682E-013
 0.910686E-013
 0.910689E-013
 0.910693E-013
 0.910696E-013
 0.910700E-013
 0.910704E-013
 0.910708E-013
 0.910713E-013
 0.910717E-013
 0.910721E-013
 0.910726E-013
 0.910731E-013
 0.910735E-013
 0.910740E-013
 0.910745E-013
 0.910750E-013
 0.910756E-013
 0.910761E-013
 0.910766E-013
 0.910771E-013
 0.910777E-013
 0.910782E-013
 0.910788E-013
 0.910793E-013
 0.910799E-013
 0.910804E-013
 0.910810E-013
 0.910816E-013
 0.910822E-013
 0.910827E-013
 0.910833E-013
 0.910839E-013
 0.910845E-013
 0.910851E-013
 0.910857E-013
 0.910863E-013
 0.910869E-013
 0.910875E-013
 0.910881E-013
 0.910885E-013
 0.910901E-013
 0.910859E-013
 0.911065E-013
 0.910355E-013
 0.912516E-013
 0.907224E-013
 0.917525E-013
 0.918422E-013
 0.906718E-013
 0.912776E-013
 0.910306E-013
 0.911130E-013
 0.910901E-013
 0.910958E-013
 0.910948E-013
 0.910951E-013
 0.910952E-013
 0.910953E-013
 0.910955E-013
 0.910956E-013
 0.910957E-013
 0.910958E-013
 0.910960E-013
 0.910961E-013
 0.910962E-013
 0.910964E-013
 0.910965E-013
 0.910966E-013
 0.910967E-013
 0.910969E-013
 0.910970E-013
 0.910971E-013
 0.910972E-013
 0.910973E-013
 0.910975E-013
 0.910976E-013
 0.910977E-013
 0.910978E-013
 0.910979E-013
 0.910980E-013
 0.910981E-013
 0.910983E-013
 0.910984E-013
 0.910985E-013
 0.910986E-013
 0.910987E-013
 0.910988E-013
 0.910989E-013
 0.910990E-013
 0.910991E-013
 0.910991E-013
 0.910992E-013
 0.910993E-013
 0.910994E-013
 0.910995E-013
 0.910995E-013
 0.910996E-013
 0.910997E-013
 0.910997E-013
 0.910998E-013
 0.910998E-013
 0.910999E-013
 0.910999E-013
 0.911000E-013
 0.911000E-013
 0.911000E-013
 0.911001E-013
 0.911001E-013
 0.911001E-013
 0.911001E-013
 0.911001E-013
 0.911001E-013
 0.911001E-013
 0.911001E-013
 0.911001E-013
 0.911001E-013
 0.911000E-013
 0.911000E-013
 0.911000E-013
 0.910999E-013
 0.910999E-013
 0.910998E-013
 0.910998E-013
 0.910997E-013
 0.910997E-013
 0.910996E-013
 0.910995E-013
 0.910995E-013
 0.910994E-013
 0.910993E-013
 0.910992E-013
 0.910991E-013
 0.910991E-013
 0.910990E-013
 0.910989E-013
 0.910988E-013
 0.910987E-013
 0.910986E-013
 0.910985E-013
 0.910984E-013
 0.910983E-013
 0.910981E-013
 0.910980E-013
 0.910979E-013
 0.910978E-013
 0.910977E-013
 0.910976E-013
 0.910975E-013
 0.910973E-013
 0.910972E-013
 0.910971E-013
 0.910970E-013
 0.910969E-013
 0.910967E-013
 0.910966E-013
 0.910965E-013
 0.910964E-013
 0.910962E-013
 0.910961E-013
 0.910960E-013
 0.910958E-013
 0.910957E-013
 0.910956E-013
 0.910955E-013
 0.910953E-013
 0.910952E-013
 0.910951E-013
 0.910948E-013
 0.910958E-013
 0.910901E-013
 0.911130E-013
 0.910306E-013
 0.912776E-013
 0.906719E-013
 0.918422E-013
 0.919301E-013
 0.906192E-013
 0.913004E-013
 0.910216E-013
 0.911146E-013
 0.910885E-013
 0.910948E-013
 0.910934E-013
 0.910936E-013
 0.910936E-013
 0.910936E-013
 0.910935E-013
 0.910935E-013
 0.910935E-013
 0.910935E-013
 0.910934E-013
 0.910934E-013
 0.910934E-013
 0.910934E-013
 0.910933E-013
 0.910933E-013
 0.910933E-013
 0.910933E-013
 0.910932E-013
 0.910932E-013
 0.910932E-013
 0.910932E-013
 0.910932E-013
 0.910931E-013
 0.910931E-013
 0.910931E-013
 0.910931E-013
 0.910931E-013
 0.910931E-013
 0.910930E-013
 0.910930E-013
 0.910930E-013
 0.910930E-013
 0.910930E-013
 0.910930E-013
 0.910930E-013
 0.910929E-013
 0.910929E-013
 0.910929E-013
 0.910929E-013
 0.910929E-013
 0.910929E-013
 0.910929E-013
 0.910929E-013
 0.910929E-013
 0.910929E-013
 0.910929E-013
 0.910929E-013
 0.910928E-013
 0.910928E-013
 0.910928E-013
 0.910928E-013
 0.910928E-013
 0.910928E-013
 0.910928E-013
 0.910928E-013
 0.910928E-013
 0.910928E-013
 0.910928E-013
 0.910928E-013
 0.910928E-013
 0.910928E-013
 0.910928E-013
 0.910928E-013
 0.910928E-013
 0.910928E-013
 0.910928E-013
 0.910928E-013
 0.910928E-013
 0.910928E-013
 0.910929E-013
 0.910929E-013
 0.910929E-013
 0.910929E-013
 0.910929E-013
 0.910929E-013
 0.910929E-013
 0.910929E-013
 0.910929E-013
 0.910929E-013
 0.910929E-013
 0.910929E-013
 0.910930E-013
 0.910930E-013
 0.910930E-013
 0.910930E-013
 0.910930E-013
 0.910930E-013
 0.910930E-013
 0.910931E-013
 0.910931E-013
 0.910931E-013
 0.910931E-013
 0.910931E-013
 0.910931E-013
 0.910932E-013
 0.910932E-013
 0.910932E-013
 0.910932E-013
 0.910932E-013
 0.910933E-013
 0.910933E-013
 0.910933E-013
 0.910933E-013
 0.910934E-013
 0.910934E-013
 0.910934E-013
 0.910934E-013
 0.910935E-013
 0.910935E-013
 0.910935E-013
 0.910935E-013
 0.910936E-013
 0.910936E-013
 0.910936E-013
 0.910934E-013
 0.910948E-013
 0.910885E-013
 0.911146E-013
 0.910216E-013
 0.913004E-013
 0.906192E-013
 0.919301E-013
 0.920181E-013
 0.905672E-013
 0.913238E-013
 0.910134E-013
 0.911172E-013
 0.910881E-013
 0.910951E-013
 0.910936E-013
 0.910939E-013
 0.910939E-013
 0.910939E-013
 0.910939E-013
 0.910939E-013
 0.910939E-013
 0.910939E-013
 0.910939E-013
 0.910939E-013
 0.910939E-013
 0.910939E-013
 0.910939E-013
 0.910939E-013
 0.910939E-013
 0.910939E-013
 0.910939E-013
 0.910940E-013
 0.910940E-013
 0.910940E-013
 0.910940E-013
 0.910940E-013
 0.910940E-013
 0.910940E-013
 0.910940E-013
 0.910940E-013
 0.910940E-013
 0.910940E-013
 0.910940E-013
 0.910940E-013
 0.910940E-013
 0.910941E-013
 0.910941E-013
 0.910941E-013
 0.910941E-013
 0.910941E-013
 0.910941E-013
 0.910941E-013
 0.910941E-013
 0.910941E-013
 0.910941E-013
 0.910941E-013
 0.910942E-013
 0.910942E-013
 0.910942E-013
 0.910942E-013
 0.910942E-013
 0.910942E-013
 0.910942E-013
 0.910942E-013
 0.910942E-013
 0.910942E-013
 0.910942E-013
 0.910942E-013
 0.910942E-013
 0.910942E-013
 0.910942E-013
 0.910942E-013
 0.910942E-013
 0.910942E-013
 0.910942E-013
 0.910942E-013
 0.910942E-013
 0.910942E-013
 0.910942E-013
 0.910942E-013
 0.910942E-013
 0.910942E-013
 0.910942E-013
 0.910942E-013
 0.910942E-013
 0.910942E-013
 0.910941E-013
 0.910941E-013
 0.910941E-013
 0.910941E-013
 0.910941E-013
 0.910941E-013
 0.910941E-013
 0.910941E-013
 0.910941E-013
 0.910941E-013
 0.910941E-013
 0.910941E-013
 0.910940E-013
 0.910940E-013
 0.910940E-013
 0.910940E-013
 0.910940E-013
 0.910940E-013
 0.910940E-013
 0.910940E-013
 0.910940E-013
 0.910940E-013
 0.910940E-013
 0.910940E-013
 0.910940E-013
 0.910939E-013
 0.910939E-013
 0.910939E-013
 0.910939E-013
 0.910939E-013
 0.910939E-013
 0.910939E-013
 0.910939E-013
 0.910939E-013
 0.910939E-013
 0.910939E-013
 0.910939E-013
 0.910939E-013
 0.910939E-013
 0.910939E-013
 0.910939E-013
 0.910936E-013
 0.910951E-013
 0.910881E-013
 0.911172E-013
 0.910135E-013
 0.913238E-013
 0.905672E-013
 0.920181E-013
 0.921058E-013
 0.905152E-013
 0.913470E-013
 0.910052E-013
 0.911196E-013
 0.910875E-013
 0.910952E-013
 0.910936E-013
 0.910939E-013
 0.910938E-013
 0.910938E-013
 0.910938E-013
 0.910938E-013
 0.910938E-013
 0.910938E-013
 0.910938E-013
 0.910938E-013
 0.910938E-013
 0.910938E-013
 0.910938E-013
 0.910938E-013
 0.910938E-013
 0.910938E-013
 0.910938E-013
 0.910938E-013
 0.910938E-013
 0.910938E-013
 0.910938E-013
 0.910938E-013
 0.910938E-013
 0.910939E-013
 0.910939E-013
 0.910939E-013
 0.910939E-013
 0.910939E-013
 0.910939E-013
 0.910939E-013
 0.910939E-013
 0.910939E-013
 0.910939E-013
 0.910939E-013
 0.910939E-013
 0.910939E-013
 0.910939E-013
 0.910939E-013
 0.910939E-013
 0.910939E-013
 0.910940E-013
 0.910940E-013
 0.910940E-013
 0.910940E-013
 0.910940E-013
 0.910940E-013
 0.910940E-013
 0.910940E-013
 0.910940E-013
 0.910940E-013
 0.910940E-013
 0.910940E-013
 0.910940E-013
 0.910940E-013
 0.910940E-013
 0.910940E-013
 0.910940E-013
 0.910940E-013
 0.910940E-013
 0.910940E-013
 0.910940E-013
 0.910940E-013
 0.910940E-013
 0.910940E-013
 0.910940E-013
 0.910940E-013
 0.910940E-013
 0.910940E-013
 0.910940E-013
 0.910940E-013
 0.910940E-013
 0.910940E-013
 0.910940E-013
 0.910940E-013
 0.910939E-013
 0.910939E-013
 0.910939E-013
 0.910939E-013
 0.910939E-013
 0.910939E-013
 0.910939E-013
 0.910939E-013
 0.910939E-013
 0.910939E-013
 0.910939E-013
 0.910939E-013
 0.910939E-013
 0.910939E-013
 0.910939E-013
 0.910939E-013
 0.910939E-013
 0.910938E-013
 0.910938E-013
 0.910938E-013
 0.910938E-013
 0.910938E-013
 0.910938E-013
 0.910938E-013
 0.910938E-013
 0.910938E-013
 0.910938E-013
 0.910938E-013
 0.910938E-013
 0.910938E-013
 0.910938E-013
 0.910938E-013
 0.910938E-013
 0.910938E-013
 0.910938E-013
 0.910938E-013
 0.910938E-013
 0.910938E-013
 0.910939E-013
 0.910936E-013
 0.910952E-013
 0.910875E-013
 0.911196E-013
 0.910052E-013
 0.913470E-013
 0.905152E-013
 0.921058E-013
 0.921932E-013
 0.904634E-013
 0.913701E-013
 0.909970E-013
 0.911220E-013
 0.910869E-013
 0.910953E-013
 0.910936E-013
 0.910939E-013
 0.910938E-013
 0.910938E-013
 0.910938E-013
 0.910938E-013
 0.910938E-013
 0.910938E-013
 0.910938E-013
 0.910938E-013
 0.910938E-013
 0.910938E-013
 0.910938E-013
 0.910938E-013
 0.910939E-013
 0.910939E-013
 0.910939E-013
 0.910939E-013
 0.910939E-013
 0.910939E-013
 0.910939E-013
 0.910939E-013
 0.910939E-013
 0.910939E-013
 0.910939E-013
 0.910939E-013
 0.910939E-013
 0.910939E-013
 0.910939E-013
 0.910939E-013
 0.910939E-013
 0.910939E-013
 0.910939E-013
 0.910940E-013
 0.910940E-013
 0.910940E-013
 0.910940E-013
 0.910940E-013
 0.910940E-013
 0.910940E-013
 0.910940E-013
 0.910940E-013