# vtk DataFile Version 3.0
Solution data
ASCII
DATASET STRUCTURED_GRID
DIMENSIONS 128 128 1
POINTS 16384  double
      0.000004      0.000004      0.000000
      0.000012      0.000004      0.000000
      0.000020      0.000004      0.000000
      0.000027      0.000004      0.000000
      0.000035      0.000004      0.000000
      0.000043      0.000004      0.000000
      0.000051      0.000004      0.000000
      0.000059      0.000004      0.000000
      0.000066      0.000004      0.000000
      0.000074      0.000004      0.000000
      0.000082      0.000004      0.000000
      0.000090      0.000004      0.000000
      0.000098      0.000004      0.000000
      0.000105      0.000004      0.000000
      0.000113      0.000004      0.000000
      0.000121      0.000004      0.000000
      0.000129      0.000004      0.000000
      0.000137      0.000004      0.000000
      0.000145      0.000004      0.000000
      0.000152      0.000004      0.000000
      0.000160      0.000004      0.000000
      0.000168      0.000004      0.000000
      0.000176      0.000004      0.000000
      0.000184      0.000004      0.000000
      0.000191      0.000004      0.000000
      0.000199      0.000004      0.000000
      0.000207      0.000004      0.000000
      0.000215      0.000004      0.000000
      0.000223      0.000004      0.000000
      0.000230      0.000004      0.000000
      0.000238      0.000004      0.000000
      0.000246      0.000004      0.000000
      0.000254      0.000004      0.000000
      0.000262      0.000004      0.000000
      0.000270      0.000004      0.000000
      0.000277      0.000004      0.000000
      0.000285      0.000004      0.000000
      0.000293      0.000004      0.000000
      0.000301      0.000004      0.000000
      0.000309      0.000004      0.000000
      0.000316      0.000004      0.000000
      0.000324      0.000004      0.000000
      0.000332      0.000004      0.000000
      0.000340      0.000004      0.000000
      0.000348      0.000004      0.000000
      0.000355      0.000004      0.000000
      0.000363      0.000004      0.000000
      0.000371      0.000004      0.000000
      0.000379      0.000004      0.000000
      0.000387      0.000004      0.000000
      0.000395      0.000004      0.000000
      0.000402      0.000004      0.000000
      0.000410      0.000004      0.000000
      0.000418      0.000004      0.000000
      0.000426      0.000004      0.000000
      0.000434      0.000004      0.000000
      0.000441      0.000004      0.000000
      0.000449      0.000004      0.000000
      0.000457      0.000004      0.000000
      0.000465      0.000004      0.000000
      0.000473      0.000004      0.000000
      0.000480      0.000004      0.000000
      0.000488      0.000004      0.000000
      0.000496      0.000004      0.000000
      0.000504      0.000004      0.000000
      0.000512      0.000004      0.000000
      0.000520      0.000004      0.000000
      0.000527      0.000004      0.000000
      0.000535      0.000004      0.000000
      0.000543      0.000004      0.000000
      0.000551      0.000004      0.000000
      0.000559      0.000004      0.000000
      0.000566      0.000004      0.000000
      0.000574      0.000004      0.000000
      0.000582      0.000004      0.000000
      0.000590      0.000004      0.000000
      0.000598      0.000004      0.000000
      0.000605      0.000004      0.000000
      0.000613      0.000004      0.000000
      0.000621      0.000004      0.000000
      0.000629      0.000004      0.000000
      0.000637      0.000004      0.000000
      0.000645      0.000004      0.000000
      0.000652      0.000004      0.000000
      0.000660      0.000004      0.000000
      0.000668      0.000004      0.000000
      0.000676      0.000004      0.000000
      0.000684      0.000004      0.000000
      0.000691      0.000004      0.000000
      0.000699      0.000004      0.000000
      0.000707      0.000004      0.000000
      0.000715      0.000004      0.000000
      0.000723      0.000004      0.000000
      0.000730      0.000004      0.000000
      0.000738      0.000004      0.000000
      0.000746      0.000004      0.000000
      0.000754      0.000004      0.000000
      0.000762      0.000004      0.000000
      0.000770      0.000004      0.000000
      0.000777      0.000004      0.000000
      0.000785      0.000004      0.000000
      0.000793      0.000004      0.000000
      0.000801      0.000004      0.000000
      0.000809      0.000004      0.000000
      0.000816      0.000004      0.000000
      0.000824      0.000004      0.000000
      0.000832      0.000004      0.000000
      0.000840      0.000004      0.000000
      0.000848      0.000004      0.000000
      0.000855      0.000004      0.000000
      0.000863      0.000004      0.000000
      0.000871      0.000004      0.000000
      0.000879      0.000004      0.000000
      0.000887      0.000004      0.000000
      0.000895      0.000004      0.000000
      0.000902      0.000004      0.000000
      0.000910      0.000004      0.000000
      0.000918      0.000004      0.000000
      0.000926      0.000004      0.000000
      0.000934      0.000004      0.000000
      0.000941      0.000004      0.000000
      0.000949      0.000004      0.000000
      0.000957      0.000004      0.000000
      0.000965      0.000004      0.000000
      0.000973      0.000004      0.000000
      0.000980      0.000004      0.000000
      0.000988      0.000004      0.000000
      0.000996      0.000004      0.000000
      0.000004      0.000012      0.000000
      0.000012      0.000012      0.000000
      0.000020      0.000012      0.000000
      0.000027      0.000012      0.000000
      0.000035      0.000012      0.000000
      0.000043      0.000012      0.000000
      0.000051      0.000012      0.000000
      0.000059      0.000012      0.000000
      0.000066      0.000012      0.000000
      0.000074      0.000012      0.000000
      0.000082      0.000012      0.000000
      0.000090      0.000012      0.000000
      0.000098      0.000012      0.000000
      0.000105      0.000012      0.000000
      0.000113      0.000012      0.000000
      0.000121      0.000012      0.000000
      0.000129      0.000012      0.000000
      0.000137      0.000012      0.000000
      0.000145      0.000012      0.000000
      0.000152      0.000012      0.000000
      0.000160      0.000012      0.000000
      0.000168      0.000012      0.000000
      0.000176      0.000012      0.000000
      0.000184      0.000012      0.000000
      0.000191      0.000012      0.000000
      0.000199      0.000012      0.000000
      0.000207      0.000012      0.000000
      0.000215      0.000012      0.000000
      0.000223      0.000012      0.000000
      0.000230      0.000012      0.000000
      0.000238      0.000012      0.000000
      0.000246      0.000012      0.000000
      0.000254      0.000012      0.000000
      0.000262      0.000012      0.000000
      0.000270      0.000012      0.000000
      0.000277      0.000012      0.000000
      0.000285      0.000012      0.000000
      0.000293      0.000012      0.000000
      0.000301      0.000012      0.000000
      0.000309      0.000012      0.000000
      0.000316      0.000012      0.000000
      0.000324      0.000012      0.000000
      0.000332      0.000012      0.000000
      0.000340      0.000012      0.000000
      0.000348      0.000012      0.000000
      0.000355      0.000012      0.000000
      0.000363      0.000012      0.000000
      0.000371      0.000012      0.000000
      0.000379      0.000012      0.000000
      0.000387      0.000012      0.000000
      0.000395      0.000012      0.000000
      0.000402      0.000012      0.000000
      0.000410      0.000012      0.000000
      0.000418      0.000012      0.000000
      0.000426      0.000012      0.000000
      0.000434      0.000012      0.000000
      0.000441      0.000012      0.000000
      0.000449      0.000012      0.000000
      0.000457      0.000012      0.000000
      0.000465      0.000012      0.000000
      0.000473      0.000012      0.000000
      0.000480      0.000012      0.000000
      0.000488      0.000012      0.000000
      0.000496      0.000012      0.000000
      0.000504      0.000012      0.000000
      0.000512      0.000012      0.000000
      0.000520      0.000012      0.000000
      0.000527      0.000012      0.000000
      0.000535      0.000012      0.000000
      0.000543      0.000012      0.000000
      0.000551      0.000012      0.000000
      0.000559      0.000012      0.000000
      0.000566      0.000012      0.000000
      0.000574      0.000012      0.000000
      0.000582      0.000012      0.000000
      0.000590      0.000012      0.000000
      0.000598      0.000012      0.000000
      0.000605      0.000012      0.000000
      0.000613      0.000012      0.000000
      0.000621      0.000012      0.000000
      0.000629      0.000012      0.000000
      0.000637      0.000012      0.000000
      0.000645      0.000012      0.000000
      0.000652      0.000012      0.000000
      0.000660      0.000012      0.000000
      0.000668      0.000012      0.000000
      0.000676      0.000012      0.000000
      0.000684      0.000012      0.000000
      0.000691      0.000012      0.000000
      0.000699      0.000012      0.000000
      0.000707      0.000012      0.000000
      0.000715      0.000012      0.000000
      0.000723      0.000012      0.000000
      0.000730      0.000012      0.000000
      0.000738      0.000012      0.000000
      0.000746      0.000012      0.000000
      0.000754      0.000012      0.000000
      0.000762      0.000012      0.000000
      0.000770      0.000012      0.000000
      0.000777      0.000012      0.000000
      0.000785      0.000012      0.000000
[...]
POINT_DATA 16384
SCALARS rhoe double
LOOKUP_TABLE default
 0.915678E-013
 0.912959E-013
 0.915231E-013
 0.915857E-013
 0.916924E-013
 0.917888E-013
 0.918869E-013
 0.919844E-013
 0.920817E-013
 0.921788E-013
 0.922755E-013
 0.923720E-013
 0.924681E-013
 0.925639E-013
 0.926594E-013
 0.927545E-013
 0.928492E-013
 0.929434E-013
 0.930373E-013
 0.931306E-013
 0.932235E-013
 0.933157E-013
 0.934074E-013
 0.934985E-013
 0.935888E-013
 0.936784E-013
 0.937672E-013
 0.938551E-013
 0.939422E-013
 0.940282E-013
 0.941132E-013
 0.941970E-013
 0.942796E-013
 0.943610E-013
 0.944410E-013
 0.945195E-013
 0.945965E-013
 0.946719E-013
 0.947455E-013
 0.948174E-013
 0.948874E-013
 0.949553E-013
 0.950212E-013
 0.950849E-013
 0.951463E-013
 0.952054E-013
 0.952619E-013
 0.953159E-013
 0.953673E-013
 0.954160E-013
 0.954618E-013
 0.955047E-013
 0.955446E-013
 0.955815E-013
 0.956153E-013
 0.956459E-013
 0.956732E-013
 0.956972E-013
 0.957179E-013
 0.957353E-013
 0.957491E-013
 0.957596E-013
 0.957666E-013
 0.957700E-013
 0.957700E-013
 0.957666E-013
 0.957596E-013
 0.957491E-013
 0.957352E-013
 0.957179E-013
 0.956972E-013
 0.956732E-013
 0.956459E-013
 0.956153E-013
 0.955815E-013
 0.955446E-013
 0.955047E-013
 0.954618E-013
 0.954159E-013
 0.953673E-013
 0.953159E-013
 0.952619E-013
 0.952053E-013
 0.951463E-013
 0.950849E-013
 0.950212E-013
 0.949553E-013
 0.948873E-013
 0.948174E-013
 0.947455E-013
 0.946719E-013
 0.945965E-013
 0.945195E-013
 0.944409E-013
 0.943610E-013
 0.942796E-013
 0.941970E-013
 0.941131E-013
 0.940282E-013
 0.939421E-013
 0.938551E-013
 0.937672E-013
 0.936784E-013
 0.935888E-013
 0.934984E-013
 0.934074E-013
 0.933157E-013
 0.932235E-013
 0.931306E-013
 0.930373E-013
 0.929434E-013
 0.928491E-013
 0.927544E-013
 0.926594E-013
 0.925639E-013
 0.924681E-013
 0.923719E-013
 0.922755E-013
 0.921787E-013
 0.920817E-013
 0.919844E-013
 0.918869E-013
 0.917888E-013
 0.916924E-013
 0.915857E-013
 0.915231E-013
 0.912959E-013
 0.915678E-013
 0.912959E-013
 0.908408E-013
 0.909588E-013
 0.908612E-013
 0.908270E-013
 0.907779E-013
 0.907318E-013
 0.906854E-013
 0.906392E-013
 0.905932E-013
 0.905472E-013
 0.905014E-013
 0.904558E-013
 0.904103E-013
 0.903650E-013
 0.903199E-013
 0.902750E-013
 0.902302E-013
 0.901857E-013
 0.901414E-013
 0.900974E-013
 0.900536E-013
 0.900102E-013
 0.899670E-013
 0.899241E-013
 0.898817E-013
 0.898396E-013
 0.897979E-013
 0.897566E-013
 0.897158E-013
 0.896755E-013
 0.896358E-013
 0.895966E-013
 0.895581E-013
 0.895202E-013
 0.894829E-013
 0.894464E-013
 0.894107E-013
 0.893758E-013
 0.893418E-013
 0.893086E-013
 0.892764E-013
 0.892452E-013
 0.892150E-013
 0.891859E-013
 0.891579E-013
 0.891311E-013
 0.891055E-013
 0.890812E-013
 0.890581E-013
 0.890364E-013
 0.890161E-013
 0.889972E-013
 0.889797E-013
 0.889637E-013
 0.889492E-013
 0.889363E-013
 0.889249E-013
 0.889151E-013
 0.889069E-013
 0.889003E-013
 0.888953E-013
 0.888920E-013
 0.888904E-013
 0.888904E-013
 0.888920E-013
 0.888953E-013
 0.889003E-013
 0.889069E-013
 0.889151E-013
 0.889249E-013
 0.889363E-013
 0.889492E-013
 0.889637E-013
 0.889797E-013
 0.889972E-013
 0.890161E-013
 0.890365E-013
 0.890582E-013
 0.890812E-013
 0.891055E-013
 0.891311E-013
 0.891580E-013
 0.891859E-013
 0.892150E-013
 0.892452E-013
 0.892764E-013
 0.893086E-013
 0.893418E-013
 0.893759E-013
 0.894108E-013
 0.894465E-013
 0.894830E-013
 0.895202E-013
 0.895581E-013
 0.895967E-013
 0.896359E-013
 0.896756E-013
 0.897159E-013
 0.897567E-013
 0.897979E-013
 0.898396E-013
 0.898817E-013
 0.899242E-013
 0.899670E-013
 0.900102E-013
 0.900537E-013
 0.900974E-013
 0.901415E-013
 0.901858E-013
 0.902303E-013
 0.902750E-013
 0.903199E-013
 0.903651E-013
 0.904104E-013
 0.904558E-013
 0.905015E-013
 0.905472E-013
 0.905932E-013
 0.906393E-013
 0.906854E-013
 0.907319E-013
 0.907779E-013
 0.908270E-013
 0.908613E-013
 0.909588E-013
 0.908408E-013
 0.912959E-013
 0.915231E-013
 0.909588E-013
 0.912084E-013
 0.911523E-013
 0.911861E-013
 0.911984E-013
 0.912149E-013
 0.912306E-013
 0.912464E-013
 0.912621E-013
 0.912778E-013
 0.912935E-013
 0.913090E-013
 0.913246E-013
 0.913400E-013
 0.913554E-013
 0.913708E-013
 0.913860E-013
 0.914012E-013
 0.914164E-013
 0.914314E-013
 0.914463E-013
 0.914612E-013
 0.914759E-013
 0.914905E-013
 0.915050E-013
 0.915194E-013
 0.915336E-013
 0.915477E-013
 0.915616E-013
 0.915754E-013
 0.915889E-013
 0.916023E-013
 0.916155E-013
 0.916284E-013
 0.916411E-013
 0.916535E-013
 0.916657E-013
 0.916776E-013
 0.916893E-013
 0.917006E-013
 0.917116E-013
 0.917222E-013
 0.917325E-013
 0.917424E-013
 0.917520E-013
 0.917611E-013
 0.917699E-013
 0.917782E-013
 0.917860E-013
 0.917934E-013
 0.918004E-013
 0.918068E-013
 0.918128E-013
 0.918183E-013
 0.918232E-013
 0.918276E-013
 0.918315E-013
 0.918349E-013
 0.918377E-013
 0.918399E-013
 0.918416E-013
 0.918427E-013
 0.918433E-013
 0.918433E-013
 0.918427E-013
 0.918416E-013
 0.918399E-013
 0.918377E-013
 0.918349E-013
 0.918315E-013
 0.918276E-013
 0.918232E-013
 0.918183E-013
 0.918128E-013
 0.918068E-013
 0.918004E-013
 0.917934E-013
 0.917860E-013
 0.917782E-013
 0.917699E-013
 0.917611E-013
 0.917520E-013
 0.917424E-013
 0.917325E-013
 0.917222E-013
 0.917116E-013
 0.917006E-013
 0.916893E-013
 0.916776E-013
 0.916657E-013
 0.916535E-013
 0.916411E-013
 0.916284E-013
 0.916154E-013
 0.916023E-013
 0.915889E-013
 0.915754E-013
 0.915616E-013
 0.915477E-013
 0.915336E-013
 0.915194E-013
 0.915050E-013
 0.914905E-013
 0.914759E-013
 0.914612E-013
 0.914463E-013
 0.914314E-013
 0.914163E-013
 0.914012E-013
 0.913860E-013
 0.913708E-013
 0.913554E-013
 0.913400E-013
 0.913245E-013
 0.913090E-013
 0.912934E-013
 0.912778E-013
 0.912621E-013
 0.912464E-013
 0.912306E-013
 0.912149E-013
 0.911983E-013
 0.911861E-013
 0.911523E-013
 0.912084E-013
 0.909588E-013
 0.915231E-013
 0.915857E-013
 0.908612E-013
 0.911523E-013
 0.910560E-013
 0.910747E-013
 0.910657E-013
 0.910624E-013
 0.910581E-013
 0.910539E-013
 0.910497E-013
 0.910456E-013
 0.910415E-013
 0.910373E-013
 0.910332E-013
 0.910291E-013
 0.910251E-013
 0.910210E-013
 0.910170E-013
 0.910130E-013
 0.910090E-013
 0.910050E-013
 0.910011E-013
 0.909972E-013
 0.909933E-013
 0.909894E-013
 0.909856E-013
 0.909818E-013
 0.909781E-013
 0.909743E-013
 0.909707E-013
 0.909671E-013
 0.909635E-013
 0.909600E-013
 0.909565E-013
 0.909531E-013
 0.909497E-013
 0.909465E-013
 0.909433E-013
 0.909401E-013
 0.909371E-013
 0.909341E-013
 0.909312E-013
 0.909284E-013
 0.909257E-013
 0.909231E-013
 0.909206E-013
 0.909182E-013
 0.909159E-013
 0.909137E-013
 0.909117E-013
 0.909097E-013
 0.909079E-013
 0.909062E-013
 0.909046E-013
 0.909032E-013
 0.909019E-013
 0.909007E-013
 0.908997E-013
 0.908988E-013
 0.908981E-013
 0.908975E-013
 0.908971E-013
 0.908968E-013
 0.908966E-013
 0.908966E-013
 0.908968E-013
 0.908971E-013
 0.908975E-013
 0.908981E-013
 0.908988E-013
 0.908997E-013
 0.909007E-013
 0.909019E-013
 0.909032E-013
 0.909046E-013
 0.909062E-013
 0.909079E-013
 0.909097E-013
 0.909117E-013
 0.909137E-013
 0.909159E-013
 0.909182E-013
 0.909206E-013
 0.909231E-013
 0.909257E-013
 0.909284E-013
 0.909312E-013
 0.909341E-013
 0.909371E-013
 0.909401E-013
 0.909433E-013
 0.909465E-013
 0.909498E-013
 0.909531E-013
 0.909565E-013
 0.909600E-013
 0.909635E-013
 0.909671E-013
 0.909707E-013
 0.909744E-013
 0.909781E-013
 0.909818E-013
 0.909856E-013
 0.909894E-013
 0.909933E-013
 0.909972E-013
 0.910011E-013
 0.910050E-013
 0.910090E-013
 0.910130E-013
 0.910170E-013
 0.910210E-013
 0.910251E-013
 0.910291E-013
 0.910332E-013
 0.910373E-013
 0.910415E-013
 0.910456E-013
 0.910497E-013
 0.910539E-013
 0.910581E-013
 0.910624E-013
 0.910657E-013
 0.910747E-013
 0.910560E-013
 0.911523E-013
 0.908613E-013
 0.915857E-013
 0.916924E-013
 0.908270E-013
 0.911861E-013
 0.910747E-013
 0.911037E-013
 0.910988E-013
 0.911007E-013
 0.911015E-013
 0.911024E-013
 0.911033E-013
 0.911042E-013
 0.911051E-013
 0.911059E-013
 0.911068E-013
 0.911077E-013
 0.911086E-013
 0.911095E-013
 0.911103E-013
 0.911112E-013
 0.911120E-013
 0.911129E-013
 0.911138E-013
 0.911146E-013
 0.911154E-013
 0.911163E-013
 0.911171E-013
 0.911179E-013
 0.911187E-013
 0.911195E-013
 0.911203E-013
 0.911211E-013
 0.911219E-013
 0.911226E-013
 0.911234E-013
 0.911241E-013
 0.911248E-013
 0.911255E-013
 0.911262E-013
 0.911269E-013
 0.911276E-013
 0.911282E-013
 0.911288E-013
 0.911294E-013
 0.911300E-013
 0.911306E-013
 0.911311E-013
 0.911317E-013
 0.911322E-013
 0.911326E-013
 0.911331E-013
 0.911335E-013
 0.911339E-013
 0.911343E-013
 0.911346E-013
 0.911349E-013
 0.911352E-013
 0.911355E-013
 0.911357E-013
 0.911359E-013
 0.911361E-013
 0.911362E-013
 0.911363E-013
 0.911363E-013
 0.911364E-013
 0.911364E-013
 0.911363E-013
 0.911363E-013
 0.911362E-013
 0.911361E-013
 0.911359E-013
 0.911357E-013
 0.911355E-013
 0.911352E-013
 0.911349E-013
 0.911346E-013
 0.911343E-013
 0.911339E-013
 0.911335E-013
 0.911331E-013
 0.911326E-013
 0.911322E-013
 0.911317E-013
 0.911311E-013
 0.911306E-013
 0.911300E-013
 0.911294E-013
 0.911288E-013
 0.911282E-013
 0.911276E-013
 0.911269E-013
 0.911262E-013
 0.911255E-013
 0.911248E-013
 0.911241E-013
 0.911234E-013
 0.911226E-013
 0.911219E-013
 0.911211E-013
 0.911203E-013
 0.911195E-013
 0.911187E-013
 0.911179E-013
 0.911171E-013
 0.911163E-013
 0.911154E-013
 0.911146E-013
 0.911138E-013
 0.911129E-013
 0.911120E-013
 0.911112E-013
 0.911103E-013
 0.911095E-013
 0.911086E-013
 0.911077E-013
 0.911068E-013
 0.911059E-013
 0.911051E-013
 0.911042E-013
 0.911033E-013
 0.911024E-013
 0.911015E-013
 0.911007E-013
 0.910988E-013
 0.911037E-013
 0.910747E-013
 0.911861E-013
 0.908270E-013
 0.916924E-013
 0.917888E-013
 0.907779E-013
 0.911984E-013
 0.910657E-013
 0.910988E-013
 0.910917E-013
 0.910928E-013
 0.910924E-013
 0.910923E-013
 0.910921E-013
 0.910920E-013
 0.910918E-013
 0.910916E-013
 0.910915E-013
 0.910913E-013
 0.910912E-013
 0.910910E-013
 0.910909E-013
 0.910907E-013
 0.910905E-013
 0.910904E-013
 0.910902E-013
 0.910901E-013
 0.910899E-013
 0.910898E-013
 0.910896E-013
 0.910895E-013
 0.910894E-013
 0.910892E-013
 0.910891E-013
 0.910889E-013
 0.910888E-013
 0.910887E-013
 0.910885E-013
 0.910884E-013
 0.910883E-013
 0.910882E-013
 0.910880E-013
 0.910879E-013
 0.910878E-013
 0.910877E-013
 0.910876E-013
 0.910875E-013
 0.910874E-013
 0.910873E-013
 0.910872E-013
 0.910871E-013
 0.910870E-013
 0.910870E-013
 0.910869E-013
 0.910868E-013
 0.910868E-013
 0.910867E-013
 0.910866E-013
 0.910866E-013
 0.910865E-013
 0.910865E-013
 0.910865E-013
 0.910864E-013
 0.910864E-013
 0.910864E-013
 0.910864E-013
 0.910864E-013
 0.910864E-013
 0.910864E-013
 0.910864E-013
 0.910864E-013
 0.910864E-013
 0.910864E-013
 0.910864E-013
 0.910865E-013
 0.910865E-013
 0.910866E-013
 0.910866E-013
 0.910866E-013
 0.910867E-013
 0.910868E-013
 0.910868E-013
 0.910869E-013
 0.910870E-013
 0.910870E-013
 0.910871E-013
 0.910872E-013
 0.910873E-013
 0.910874E-013
 0.910875E-013
 0.910876E-013
 0.910877E-013
 0.910878E-013
 0.910879E-013
 0.910880E-013
 0.910882E-013
 0.910883E-013
 0.910884E-013
 0.910885E-013
 0.910887E-013
 0.910888E-013
 0.910889E-013
 0.910891E-013
 0.910892E-013
 0.910894E-013
 0.910895E-013
 0.910896E-013
 0.910898E-013
 0.910899E-013
 0.910901E-013
 0.910902E-013
 0.910904E-013
 0.910905E-013
 0.910907E-013
 0.910909E-013
 0.910910E-013
 0.910912E-013
 0.910913E-013
 0.910915E-013
 0.910916E-013
 0.910918E-013
 0.910920E-013
 0.910921E-013
 0.910923E-013
 0.910924E-013
 0.910928E-013
 0.910917E-013
 0.910988E-013
 0.910657E-013
 0.911983E-013
 0.907779E-013
 0.917888E-013
 0.918869E-013
 0.907318E-013
 0.912149E-013
 0.910624E-013
 0.911007E-013
 0.910928E-013
 0.910942E-013
 0.910940E-013
 0.910941E-013
 0.910941E-013
 0.910941E-013
 0.910941E-013
 0.910942E-013
 0.910942E-013
 0.910942E-013
 0.910943E-013
 0.910943E-013
 0.910943E-013
 0.910943E-013
 0.910944E-013
 0.910944E-013
 0.910944E-013
 0.910944E-013
 0.910945E-013
 0.910945E-013
 0.910945E-013
 0.910945E-013
 0.910946E-013
 0.910946E-013
 0.910946E-013
 0.910946E-013
 0.910947E-013
 0.910947E-013
 0.910947E-013
 0.910947E-013
 0.910948E-013
 0.910948E-013
 0.910948E-013
 0.910948E-013
 0.910949E-013
 0.910949E-013
 0.910949E-013
 0.910950E-013
 0.910950E-013
 0.910950E-013
 0.910950E-013
 0.910950E-013
 0.910951E-013
 0.910951E-013
 0.910951E-013
 0.910951E-013
 0.910951E-013
 0.910952E-013
 0.910952E-013
 0.910952E-013
 0.910952E-013
 0.910952E-013
 0.910952E-013
 0.910952E-013
 0.910953E-013
 0.910953E-013
 0.910953E-013
 0.910953E-013
 0.910953E-013
 0.910953E-013
 0.910953E-013
 0.910953E-013
 0.910953E-013
 0.910953E-013
 0.910952E-013
 0.910952E-013
 0.910952E-013
 0.910952E-013
 0.910952E-013
 0.910952E-013
 0.910952E-013
 0.910952E-013
 0.910951E-013
 0.910951E-013
 0.910951E-013
 0.910951E-013
 0.910950E-013
 0.910950E-013
 0.910950E-013
 0.910950E-013
 0.910950E-013
 0.910949E-013
 0.910949E-013
 0.910949E-013
 0.910948E-013
 0.910948E-013
 0.910948E-013
 0.910948E-013
 0.910947E-013
 0.910947E-013
 0.910947E-013
 0.910947E-013
 0.910946E-013
 0.910946E-013
 0.910946E-013
 0.910946E-013
 0.910945E-013
 0.910945E-013
 0.910945E-013
 0.910945E-013
 0.910944E-013
 0.910944E-013
 0.910944E-013
 0.910944E-013
 0.910943E-013
 0.910943E-013
 0.910943E-013
 0.910943E-013
 0.910942E-013
 0.910942E-013
 0.910942E-013
 0.910942E-013
 0.910941E-013
 0.910941E-013
 0.910941E-013
 0.910940E-013
 0.910942E-013
 0.910928E-013
 0.911007E-013
 0.910624E-013
 0.912149E-013
 0.907319E-013
 0.918869E-013
 0.919844E-013
 0.906854E-013
 0.912306E-013
 0.910581E-013
 0.911015E-013
 0.910924E-013
 0.910940E-013
 0.910938E-013
 0.910938E-013
 0.910938E-013
 0.910938E-013
 0.910938E-013
 0.910938E-013
 0.910938E-013
 0.910938E-013
 0.910938E-013
 0.910938E-013
 0.910938E-013
 0.910938E-013
 0.910938E-013
 0.910938E-013
 0.910938E-013
 0.910938E-013
 0.910938E-013
 0.910938E-013
 0.910938E-013
 0.910938E-013
 0.910938E-013
 0.910938E-013
 0.910938E-013
 0.910938E-013
 0.910938E-013
 0.910938E-013
 0.910938E-013
 0.910938E-013
 0.910938E-013
 0.910938E-013
 0.910938E-013
 0.910938E-013
 0.910938E-013
 0.910938E-013
 0.910938E-013
 0.910938E-013
 0.910938E-013
 0.910938E-013
 0.910939E-013
 0.910939E-013
 0.910939E-013
 0.910939E-013
 0.910939E-013
 0.910939E-013
 0.910939E-013
 0.910939E-013
 0.910939E-013
 0.910939E-013
 0.910939E-013
 0.910939E-013
 0.910939E-013
 0.910939E-013
 0.910939E-013
 0.910940E-013
 0.910940E-013
 0.910940E-013
 0.910940E-013
 0.910940E-013
 0.910940E-013
 0.910940E-013
 0.910940E-013
 0.910939E-013
 0.910939E-013
 0.910939E-013
 0.910939E-013
 0.910939E-013
 0.910939E-013
 0.910939E-013
 0.910939E-013
 0.910939E-013
 0.910939E-013
 0.910939E-013
 0.910939E-013
 0.910939E-013
 0.910939E-013
 0.910939E-013
 0.910938E-013
 0.910938E-013
 0.910938E-013
 0.910938E-013
 0.910938E-013
 0.910938E-013
 0.910938E-013
 0.910938E-013
 0.910938E-013
 0.910938E-013
 0.910938E-013
 0.910938E-013
 0.910938E-013
 0.910938E-013
 0.910938E-013
 0.910938E-013
 0.910938E-013
 0.910938E-013
 0.910938E-013
 0.910938E-013
 0.910938E-013
 0.910938E-013
 0.910938E-013
 0.910938E-013
 0.910938E-013
 0.910938E-013
 0.910938E-013
 0.910938E-013
 0.910938E-013
 0.910938E-013
 0.910938E-013
 0.910938E-013
 0.910938E-013
 0.910938E-013
 0.910938E-013
 0.910938E-013
 0.910938E-013
 0.910938E-013
 0.910940E-013
 0.910924E-013
 0.911015E-013
 0.910581E-013
 0.912306E-013
 0.906855E-013
 0.919844E-013
 0.920817E-013
 0.906392E-013
 0.912464E-013
 0.910539E-013
 0.911024E-013
 0.910923E-013
 0.910941E-013
 0.910938E-013
 0.910938E-013
 0.910938E-013
 0.910938E-013
 0.910938E-013
 0.910938E-013
 0.910938E-013
 0.910938E-013
 0.910938E-013
 0.910938E-013
 0.910938E-013
 0.910938E-013
 0.910939E-013
 0.910939E-013
 0.910939E-013
 0.910939E-013
 0.910939E-013
 0.910939E-013
 0.910939E-013
 0.910939E-013
 0.910939E-013
 0.910939E-013
 0.910939E-013
 0.910939E-013
 0.910939E-013
 0.910939E-013
 0.910939E-013
 0.910939E-013
 0.910939E-013
 0.910939E-013
 0.910940E-013
 0.910940E-013
 0.910940E-013
 0.910940E-013
 0.910940E-013
 0.910940E-013
 0.910940E-013
 0.910940E-013
 0.910940E-013
 0.910941E-013
 0.910941E-013
 0.910941E-013
 0.910941E-013
 0.910941E-013
 0.910941E-013
 0.910941E-013
 0.910941E-013
 0.910941E-013
 0.910942E-013
 0.910942E-013
 0.910942E-013
 0.910942E-013
 0.910942E-013
 0.910942E-013
 0.910942E-013
 0.910942E-013
 0.910942E-013
 0.910942E-013
 0.910942E-013
 0.910942E-013
 0.910942E-013
 0.910942E-013
 0.910942E-013
 0.910942E-013
 0.910942E-013
 0.910942E-013
 0.910941E-013
 0.910941E-013
 0.910941E-013
 0.910941E-013
 0.910941E-013
 0.910941E-013
 0.910941E-013
 0.910941E-013
 0.910941E-013
 0.910940E-013
 0.910940E-013
 0.910940E-013
 0.910940E-013
 0.910940E-013
 0.910940E-013
 0.910940E-013
 0.910940E-013
 0.910940E-013
 0.910939E-013
 0.910939E-013
 0.910939E-013
 0.910939E-013
 0.910939E-013
 0.910939E-013
 0.910939E-013
 0.910939E-013
 0.910939E-013
 0.910939E-013
 0.910939E-013
 0.910939E-013
 0.910939E-013
 0.910939E-013
 0.910939E-013
 0.910939E-013
 0.910939E-013
 0.910939E-013
 0.910938E-013
 0.910938E-013
 0.910938E-013
 0.910938E-013
 0.910938E-013
 0.910938E-013
 0.910938E-013
 0.910938E-013
 0.910938E-013
 0.910938E-013
 0.910938E-013
 0.910938E-013
 0.910941E-013
 0.910923E-013
 0.911024E-013
 0.910539E-013
 0.912464E-013
 0.906393E-013
 0.920817E-013
 0.921788E-013
 0.905932E-013
 0.912621E-013
 0.910497E-013
 0.911033E-013
 0.910921E-013
 0.910941E-013
 0.910938E-013
 0.910938E-013
 0.910938E-013
 0.910938E-013
 0.910938E-013
 0.910938E-013
 0.910938E-013
 0.910938E-013
 0.910938E-013
 0.910938E-013
 0.910938E-013
 0.910938E-013
 0.910938E-013
 0.910938E-013
 0.910938E-013
 0.910939E-013
 0.910939E-013
 0.910939E-013
 0.910939E-013
 0.910939E-013
 0.910939E-013
 0.910939E-013
 0.910939E-013
 0.910939E-013
 0.910939E-013
 0.910939E-013
 0.910939E-013
 0.910939E-013
 0.910939E-013
 0.910939E-013
 0.910940E-013
 0.910940E-013
 0.910940E-013
 0.910940E-013
 0.910940E-013
 0.910940E-013
 0.910940E-013
 0.910940E-013
 0.910941E-013
 0.910941E-013
 0.910941E-013
 0.910941E-013
 0.910941E-013
 0.910941E-013
 0.910941E-013
 0.910942E-013
 0.910942E-013
 0.910942E-013
 0.910942E-013
 0.910942E-013
 0.910942E-013
 0.910942E-013
 0.910942E-013
 0.910942E-013
 0.910942E-013
 0.910942E-013
 0.910942E-013
 0.910942E-013
 0.910942E-013
 0.910942E-013
 0.910942E-013
 0.910942E-013
 0.910942E-013
 0.910942E-013
 0.910942E-013
 0.910942E-013
 0.910942E-013
 0.910942E-013
 0.910942E-013
 0.910941E-013
 0.910941E-013
 0.910941E-013
 0.910941E-013
 0.910941E-013
 0.910941E-013
 0.910941E-013
 0.910941E-013
 0.910940E-013
 0.910940E-013
 0.910940E-013
 0.910940E-013
 0.910940E-013
 0.910940E-013
 0.910940E-013
 0.910939E-013
 0.910939E-013
 0.910939E-013
 0.910939E-013
 0.910939E-013
 0.910939E-013
 0.910939E-013
 0.910939E-013
 0.910939E-013
 0.910939E-013
 0.910939E-013
 0.910939E-013
 0.910939E-013
 0.910939E-013
 0.910939E-013
 0.910939E-013
 0.910938E-013
 0.910938E-013
 0.910938E-013
 0.910938E-013
 0.910938E-013
 0.910938E-013
 0.910938E-013
 0.910938E-013
 0.910938E-013
 0.910938E-013
 0.910938E-013
 0.910938E-013
 0.910938E-013
 0.910938E-013
 0.910941E-013
 0.910921E-013
 0.911033E-013
 0.910497E-013
 0.912621E-013
 0.905932E-013
 0.921787E-013
 0.922755E-013
 0.905472E-013
 0.912778E-013
 0.910456E-013
 0.911042E-013
 0.910920E-013
 0.910941E-013
 0.910938E-013
 0.910938E-013
 0.910938E-013
 0.910938E-013
 0.910938E-013
 0.910938E-013
 0.910938E-013
 0.910938E-013
 0.910938E-013
 0.910938E-013
 0.910938E-013
 0.910938E-013
 0.910938E-013
 0.910938E-013
 0.910939E-013
 0.910939E-013
 0.910939E-013
 0.910939E-013
 0.910939E-013
 0.910939E-013
 0.910939E-013
 0.910939E-013
 0.910939E-013
 0.910939E-013
 0.910939E-013
 0.910939E-013
 0.910939E-013
 0.910939E-013
 0.910940E-013
 0.910940E-013
 0.910940E-013
 0.910940E-013
 0.910940E-013
 0.910940E-013
 0.910940E-013
 0.910941E-013
 0.910941E-013
 0.910941E-013
 0.910941E-013
 0.910941E-013
 0.910941E-013
 0.910942E-013