# vtk DataFile Version 3.0
Solution data
ASCII
DATASET STRUCTURED_GRID
DIMENSIONS 128 128 1
POINTS 16384  double
      0.000004      0.000004      0.000000
      0.000012      0.000004      0.000000
      0.000020      0.000004      0.000000
      0.000027      0.000004      0.000000
      0.000035      0.000004      0.000000
      0.000043      0.000004      0.000000
      0.000051      0.000004      0.000000
      0.000059      0.000004      0.000000
      0.000066      0.000004      0.000000
      0.000074      0.000004      0.000000
      0.000082      0.000004      0.000000
      0.000090      0.000004      0.000000
      0.000098      0.000004      0.000000
      0.000105      0.000004      0.000000
      0.000113      0.000004      0.000000
      0.000121      0.000004      0.000000
      0.000129      0.000004      0.000000
      0.000137      0.000004      0.000000
      0.000145      0.000004      0.000000
      0.000152      0.000004      0.000000
      0.000160      0.000004      0.000000
      0.000168      0.000004      0.000000
      0.000176      0.000004      0.000000
      0.000184      0.000004      0.000000
      0.000191      0.000004      0.000000
      0.000199      0.000004      0.000000
      0.000207      0.000004      0.000000
      0.000215      0.000004      0.000000
      0.000223      0.000004      0.000000
      0.000230      0.000004      0.000000
      0.000238      0.000004      0.000000
      0.000246      0.000004      0.000000
      0.000254      0.000004      0.000000
      0.000262      0.000004      0.000000
      0.000270      0.000004      0.000000
      0.000277      0.000004      0.000000
      0.000285      0.000004      0.000000
      0.000293      0.000004      0.000000
      0.000301      0.000004      0.000000
      0.000309      0.000004      0.000000
      0.000316      0.000004      0.000000
      0.000324      0.000004      0.000000
      0.000332      0.000004      0.000000
      0.000340      0.000004      0.000000
      0.000348      0.000004      0.000000
      0.000355      0.000004      0.000000
      0.000363      0.000004      0.000000
      0.000371      0.000004      0.000000
      0.000379      0.000004      0.000000
      0.000387      0.000004      0.000000
      0.000395      0.000004      0.000000
      0.000402      0.000004      0.000000
      0.000410      0.000004      0.000000
      0.000418      0.000004      0.000000
      0.000426      0.000004      0.000000
      0.000434      0.000004      0.000000
      0.000441      0.000004      0.000000
      0.000449      0.000004      0.000000
      0.000457      0.000004      0.000000
      0.000465      0.000004      0.000000
      0.000473      0.000004      0.000000
      0.000480      0.000004      0.000000
      0.000488      0.000004      0.000000
      0.000496      0.000004      0.000000
      0.000504      0.000004      0.000000
      0.000512      0.000004      0.000000
      0.000520      0.000004      0.000000
      0.000527      0.000004      0.000000
      0.000535      0.000004      0.000000
      0.000543      0.000004      0.000000
      0.000551      0.000004      0.000000
      0.000559      0.000004      0.000000
      0.000566      0.000004      0.000000
      0.000574      0.000004      0.000000
      0.000582      0.000004      0.000000
      0.000590      0.000004      0.000000
      0.000598      0.000004      0.000000
      0.000605      0.000004      0.000000
      0.000613      0.000004      0.000000
      0.000621      0.000004      0.000000
      0.000629      0.000004      0.000000
      0.000637      0.000004      0.000000
      0.000645      0.000004      0.000000
      0.000652      0.000004      0.000000
      0.000660      0.000004      0.000000
      0.000668      0.000004      0.000000
      0.000676      0.000004      0.000000
      0.000684      0.000004      0.000000
      0.000691      0.000004      0.000000
      0.000699      0.000004      0.000000
      0.000707      0.000004      0.000000
      0.000715      0.000004      0.000000
      0.000723      0.000004      0.000000
      0.000730      0.000004      0.000000
      0.000738      0.000004      0.000000
      0.000746      0.000004      0.000000
      0.000754      0.000004      0.000000
      0.000762      0.000004      0.000000
      0.000770      0.000004      0.000000
      0.000777      0.000004      0.000000
      0.000785      0.000004      0.000000
      0.000793      0.000004      0.000000
      0.000801      0.000004      0.000000
      0.000809      0.000004      0.000000
      0.000816      0.000004      0.000000
      0.000824      0.000004      0.000000
      0.000832      0.000004      0.000000
      0.000840      0.000004      0.000000
      0.000848      0.000004      0.000000
      0.000855      0.000004      0.000000
      0.000863      0.000004      0.000000
      0.000871      0.000004      0.000000
      0.000879      0.000004      0.000000
      0.000887      0.000004      0.000000
      0.000895      0.000004      0.000000
      0.000902      0.000004      0.000000
      0.000910      0.000004      0.000000
      0.000918      0.000004      0.000000
      0.000926      0.000004      0.000000
      0.000934      0.000004      0.000000
      0.000941      0.000004      0.000000
      0.000949      0.000004      0.000000
      0.000957      0.000004      0.000000
      0.000965      0.000004      0.000000
      0.000973      0.000004      0.000000
      0.000980      0.000004      0.000000
      0.000988      0.000004      0.000000
      0.000996      0.000004      0.000000
      0.000004      0.000012      0.000000
      0.000012      0.000012      0.000000
      0.000020      0.000012      0.000000
      0.000027      0.000012      0.000000
      0.000035      0.000012      0.000000
      0.000043      0.000012      0.000000
      0.000051      0.000012      0.000000
      0.000059      0.000012      0.000000
      0.000066      0.000012      0.000000
      0.000074      0.000012      0.000000
      0.000082      0.000012      0.000000
      0.000090      0.000012      0.000000
      0.000098      0.000012      0.000000
      0.000105      0.000012      0.000000
      0.000113      0.000012      0.000000
      0.000121      0.000012      0.000000
      0.000129      0.000012      0.000000
      0.000137      0.000012      0.000000
      0.000145      0.000012      0.000000
      0.000152      0.000012      0.000000
      0.000160      0.000012      0.000000
      0.000168      0.000012      0.000000
      0.000176      0.000012      0.000000
      0.000184      0.000012      0.000000
      0.000191      0.000012      0.000000
      0.000199      0.000012      0.000000
      0.000207      0.000012      0.000000
      0.000215      0.000012      0.000000
      0.000223      0.000012      0.000000
      0.000230      0.000012      0.000000
      0.000238      0.000012      0.000000
      0.000246      0.000012      0.000000
      0.000254      0.000012      0.000000
      0.000262      0.000012      0.000000
      0.000270      0.000012      0.000000
      0.000277      0.000012      0.000000
      0.000285      0.000012      0.000000
      0.000293      0.000012      0.000000
      0.000301      0.000012      0.000000
      0.000309      0.000012      0.000000
      0.000316      0.000012      0.000000
      0.000324      0.000012      0.000000
      0.000332      0.000012      0.000000
      0.000340      0.000012      0.000000
      0.000348      0.000012      0.000000
      0.000355      0.000012      0.000000
      0.000363      0.000012      0.000000
      0.000371      0.000012      0.000000
      0.000379      0.000012      0.000000
      0.000387      0.000012      0.000000
      0.000395      0.000012      0.000000
      0.000402      0.000012      0.000000
      0.000410      0.000012      0.000000
      0.000418      0.000012      0.000000
      0.000426      0.000012      0.000000
      0.000434      0.000012      0.000000
      0.000441      0.000012      0.000000
      0.000449      0.000012      0.000000
      0.000457      0.000012      0.000000
      0.000465      0.000012      0.000000
      0.000473      0.000012      0.000000
      0.000480      0.000012      0.000000
      0.000488      0.000012      0.000000
      0.000496      0.000012      0.000000
      0.000504      0.000012      0.000000
      0.000512      0.000012      0.000000
      0.000520      0.000012      0.000000
      0.000527      0.000012      0.000000
      0.000535      0.000012      0.000000
      0.000543      0.000012      0.000000
      0.000551      0.000012      0.000000
      0.000559      0.000012      0.000000
      0.000566      0.000012      0.000000
      0.000574      0.000012      0.000000
      0.000582      0.000012      0.000000
      0.000590      0.000012      0.000000
      0.000598      0.000012      0.000000
      0.000605      0.000012      0.000000
      0.000613      0.000012      0.000000
      0.000621      0.000012      0.000000
      0.000629      0.000012      0.000000
      0.000637      0.000012      0.000000
      0.000645      0.000012      0.000000
      0.000652      0.000012      0.000000
      0.000660      0.000012      0.000000
      0.000668      0.000012      0.000000
      0.000676      0.000012      0.000000
      0.000684      0.000012      0.000000
      0.000691      0.000012      0.000000
      0.000699      0.000012      0.000000
      0.000707      0.000012      0.000000
      0.000715      0.000012      0.000000
      0.000723      0.000012      0.000000
      0.000730      0.000012      0.000000
      0.000738      0.000012      0.000000
      0.000746      0.000012      0.000000
      0.000754      0.000012      0.000000
      0.000762      0.000012      0.000000
      0.000770      0.000012      0.000000
      0.000777      0.000012      0.000000
      0.000785      0.000012      0.000000
[...]
POINT_DATA 16384
SCALARS rhoe double
LOOKUP_TABLE default
 0.916496E-013
 0.912344E-013
 0.915457E-013
 0.915432E-013
 0.916566E-013
 0.917325E-013
 0.918187E-013
 0.919021E-013
 0.919858E-013
 0.920691E-013
 0.921522E-013
 0.922350E-013
 0.923175E-013
 0.923997E-013
 0.924816E-013
 0.925631E-013
 0.926443E-013
 0.927251E-013
 0.928055E-013
 0.928854E-013
 0.929649E-013
 0.930439E-013
 0.931223E-013
 0.932002E-013
 0.932774E-013
 0.933539E-013
 0.934298E-013
 0.935048E-013
 0.935791E-013
 0.936525E-013
 0.937249E-013
 0.937963E-013
 0.938667E-013
 0.939360E-013
 0.940040E-013
 0.940708E-013
 0.941363E-013
 0.942003E-013
 0.942629E-013
 0.943239E-013
 0.943833E-013
 0.944410E-013
 0.944968E-013
 0.945508E-013
 0.946029E-013
 0.946529E-013
 0.947008E-013
 0.947465E-013
 0.947900E-013
 0.948311E-013
 0.948699E-013
 0.949062E-013
 0.949399E-013
 0.949711E-013
 0.949996E-013
 0.950255E-013
 0.950486E-013
 0.950689E-013
 0.950863E-013
 0.951009E-013
 0.951127E-013
 0.951215E-013
 0.951274E-013
 0.951303E-013
 0.951303E-013
 0.951274E-013
 0.951215E-013
 0.951127E-013
 0.951009E-013
 0.950863E-013
 0.950689E-013
 0.950486E-013
 0.950255E-013
 0.949996E-013
 0.949711E-013
 0.949399E-013
 0.949062E-013
 0.948699E-013
 0.948311E-013
 0.947900E-013
 0.947465E-013
 0.947008E-013
 0.946529E-013
 0.946029E-013
 0.945508E-013
 0.944968E-013
 0.944410E-013
 0.943833E-013
 0.943239E-013
 0.942629E-013
 0.942004E-013
 0.941363E-013
 0.940708E-013
 0.940040E-013
 0.939360E-013
 0.938667E-013
 0.937963E-013
 0.937249E-013
 0.936525E-013
 0.935791E-013
 0.935049E-013
 0.934298E-013
 0.933540E-013
 0.932774E-013
 0.932002E-013
 0.931223E-013
 0.930439E-013
 0.929649E-013
 0.928855E-013
 0.928055E-013
 0.927251E-013
 0.926443E-013
 0.925631E-013
 0.924816E-013
 0.923997E-013
 0.923175E-013
 0.922350E-013
 0.921522E-013
 0.920691E-013
 0.919858E-013
 0.919021E-013
 0.918187E-013
 0.917326E-013
 0.916566E-013
 0.915432E-013
 0.915457E-013
 0.912344E-013
 0.916496E-013
 0.912344E-013
 0.907702E-013
 0.909427E-013
 0.907891E-013
 0.907715E-013
 0.907067E-013
 0.906561E-013
 0.906020E-013
 0.905489E-013
 0.904958E-013
 0.904428E-013
 0.903901E-013
 0.903376E-013
 0.902852E-013
 0.902331E-013
 0.901811E-013
 0.901294E-013
 0.900780E-013
 0.900268E-013
 0.899759E-013
 0.899252E-013
 0.898749E-013
 0.898250E-013
 0.897754E-013
 0.897261E-013
 0.896774E-013
 0.896290E-013
 0.895812E-013
 0.895338E-013
 0.894871E-013
 0.894409E-013
 0.893953E-013
 0.893504E-013
 0.893063E-013
 0.892628E-013
 0.892202E-013
 0.891785E-013
 0.891376E-013
 0.890976E-013
 0.890587E-013
 0.890208E-013
 0.889840E-013
 0.889483E-013
 0.889138E-013
 0.888806E-013
 0.888487E-013
 0.888181E-013
 0.887889E-013
 0.887611E-013
 0.887348E-013
 0.887100E-013
 0.886869E-013
 0.886653E-013
 0.886454E-013
 0.886271E-013
 0.886106E-013
 0.885959E-013
 0.885829E-013
 0.885717E-013
 0.885624E-013
 0.885549E-013
 0.885492E-013
 0.885455E-013
 0.885436E-013
 0.885436E-013
 0.885455E-013
 0.885492E-013
 0.885549E-013
 0.885624E-013
 0.885717E-013
 0.885829E-013
 0.885959E-013
 0.886106E-013
 0.886271E-013
 0.886454E-013
 0.886653E-013
 0.886869E-013
 0.887100E-013
 0.887348E-013
 0.887611E-013
 0.887889E-013
 0.888181E-013
 0.888487E-013
 0.888806E-013
 0.889139E-013
 0.889483E-013
 0.889840E-013
 0.890208E-013
 0.890587E-013
 0.890977E-013
 0.891376E-013
 0.891785E-013
 0.892202E-013
 0.892629E-013
 0.893063E-013
 0.893504E-013
 0.893953E-013
 0.894409E-013
 0.894871E-013
 0.895339E-013
 0.895812E-013
 0.896290E-013
 0.896774E-013
 0.897262E-013
 0.897754E-013
 0.898250E-013
 0.898749E-013
 0.899252E-013
 0.899759E-013
 0.900268E-013
 0.900780E-013
 0.901295E-013
 0.901812E-013
 0.902331E-013
 0.902852E-013
 0.903376E-013
 0.903901E-013
 0.904429E-013
 0.904958E-013
 0.905489E-013
 0.906020E-013
 0.906561E-013
 0.907067E-013
 0.907715E-013
 0.907891E-013
 0.909427E-013
 0.907702E-013
 0.912344E-013
 0.915457E-013
 0.909427E-013
 0.913009E-013
 0.911840E-013
 0.912623E-013
 0.912727E-013
 0.913032E-013
 0.913284E-013
 0.913548E-013
 0.913808E-013
 0.914068E-013
 0.914326E-013
 0.914584E-013
 0.914841E-013
 0.915097E-013
 0.915351E-013
 0.915605E-013
 0.915857E-013
 0.916108E-013
 0.916357E-013
 0.916606E-013
 0.916852E-013
 0.917097E-013
 0.917340E-013
 0.917581E-013
 0.917820E-013
 0.918057E-013
 0.918291E-013
 0.918523E-013
 0.918752E-013
 0.918978E-013
 0.919202E-013
 0.919422E-013
 0.919638E-013
 0.919851E-013
 0.920059E-013
 0.920264E-013
 0.920464E-013
 0.920660E-013
 0.920851E-013
 0.921037E-013
 0.921217E-013
 0.921392E-013
 0.921561E-013
 0.921723E-013
 0.921880E-013
 0.922030E-013
 0.922173E-013
 0.922309E-013
 0.922438E-013
 0.922559E-013
 0.922673E-013
 0.922779E-013
 0.922876E-013
 0.922966E-013
 0.923046E-013
 0.923119E-013
 0.923182E-013
 0.923237E-013
 0.923283E-013
 0.923320E-013
 0.923347E-013
 0.923366E-013
 0.923375E-013
 0.923375E-013
 0.923366E-013
 0.923347E-013
 0.923320E-013
 0.923283E-013
 0.923237E-013
 0.923182E-013
 0.923119E-013
 0.923046E-013
 0.922965E-013
 0.922876E-013
 0.922778E-013
 0.922673E-013
 0.922559E-013
 0.922438E-013
 0.922309E-013
 0.922173E-013
 0.922030E-013
 0.921880E-013
 0.921723E-013
 0.921560E-013
 0.921392E-013
 0.921217E-013
 0.921036E-013
 0.920851E-013
 0.920660E-013
 0.920464E-013
 0.920264E-013
 0.920059E-013
 0.919851E-013
 0.919638E-013
 0.919421E-013
 0.919201E-013
 0.918978E-013
 0.918752E-013
 0.918523E-013
 0.918291E-013
 0.918057E-013
 0.917820E-013
 0.917581E-013
 0.917340E-013
 0.917097E-013
 0.916852E-013
 0.916605E-013
 0.916357E-013
 0.916108E-013
 0.915857E-013
 0.915605E-013
 0.915351E-013
 0.915096E-013
 0.914841E-013
 0.914584E-013
 0.914326E-013
 0.914068E-013
 0.913808E-013
 0.913548E-013
 0.913284E-013
 0.913032E-013
 0.912727E-013
 0.912623E-013
 0.911840E-013
 0.913009E-013
 0.909427E-013
 0.915457E-013
 0.915432E-013
 0.907891E-013
 0.911840E-013
 0.909949E-013
 0.910498E-013
 0.910191E-013
 0.910142E-013
 0.910025E-013
 0.909925E-013
 0.909821E-013
 0.909719E-013
 0.909617E-013
 0.909515E-013
 0.909413E-013
 0.909312E-013
 0.909212E-013
 0.909112E-013
 0.909012E-013
 0.908913E-013
 0.908814E-013
 0.908716E-013
 0.908619E-013
 0.908522E-013
 0.908426E-013
 0.908331E-013
 0.908236E-013
 0.908143E-013
 0.908050E-013
 0.907958E-013
 0.907868E-013
 0.907778E-013
 0.907690E-013
 0.907603E-013
 0.907518E-013
 0.907434E-013
 0.907351E-013
 0.907270E-013
 0.907191E-013
 0.907114E-013
 0.907038E-013
 0.906965E-013
 0.906894E-013
 0.906825E-013
 0.906758E-013
 0.906694E-013
 0.906632E-013
 0.906572E-013
 0.906516E-013
 0.906462E-013
 0.906411E-013
 0.906363E-013
 0.906318E-013
 0.906277E-013
 0.906238E-013
 0.906203E-013
 0.906171E-013
 0.906142E-013
 0.906117E-013
 0.906095E-013
 0.906077E-013
 0.906063E-013
 0.906052E-013
 0.906044E-013
 0.906041E-013
 0.906041E-013
 0.906044E-013
 0.906052E-013
 0.906063E-013
 0.906077E-013
 0.906095E-013
 0.906117E-013
 0.906142E-013
 0.906171E-013
 0.906203E-013
 0.906238E-013
 0.906277E-013
 0.906318E-013
 0.906363E-013
 0.906411E-013
 0.906462E-013
 0.906516E-013
 0.906573E-013
 0.906632E-013
 0.906694E-013
 0.906758E-013
 0.906825E-013
 0.906894E-013
 0.906965E-013
 0.907039E-013
 0.907114E-013
 0.907191E-013
 0.907270E-013
 0.907351E-013
 0.907434E-013
 0.907518E-013
 0.907603E-013
 0.907690E-013
 0.907778E-013
 0.907868E-013
 0.907958E-013
 0.908050E-013
 0.908143E-013
 0.908236E-013
 0.908331E-013
 0.908426E-013
 0.908522E-013
 0.908619E-013
 0.908716E-013
 0.908814E-013
 0.908913E-013
 0.909012E-013
 0.909112E-013
 0.909212E-013
 0.909312E-013
 0.909413E-013
 0.909515E-013
 0.909617E-013
 0.909719E-013
 0.909821E-013
 0.909925E-013
 0.910025E-013
 0.910142E-013
 0.910191E-013
 0.910498E-013
 0.909950E-013
 0.911840E-013
 0.907891E-013
 0.915432E-013
 0.916566E-013
 0.907715E-013
 0.912623E-013
 0.910498E-013
 0.911325E-013
 0.911112E-013
 0.911213E-013
 0.911231E-013
 0.911269E-013
 0.911302E-013
 0.911336E-013
 0.911369E-013
 0.911403E-013
 0.911436E-013
 0.911469E-013
 0.911503E-013
 0.911536E-013
 0.911568E-013
 0.911601E-013
 0.911633E-013
 0.911666E-013
 0.911698E-013
 0.911730E-013
 0.911761E-013
 0.911793E-013
 0.911824E-013
 0.911854E-013
 0.911885E-013
 0.911915E-013
 0.911945E-013
 0.911974E-013
 0.912003E-013
 0.912032E-013
 0.912060E-013
 0.912088E-013
 0.912115E-013
 0.912141E-013
 0.912167E-013
 0.912193E-013
 0.912218E-013
 0.912242E-013
 0.912265E-013
 0.912288E-013
 0.912310E-013
 0.912331E-013
 0.912352E-013
 0.912371E-013
 0.912390E-013
 0.912407E-013
 0.912424E-013
 0.912440E-013
 0.912455E-013
 0.912469E-013
 0.912481E-013
 0.912493E-013
 0.912503E-013
 0.912513E-013
 0.912521E-013
 0.912528E-013
 0.912534E-013
 0.912539E-013
 0.912543E-013
 0.912545E-013
 0.912546E-013
 0.912546E-013
 0.912545E-013
 0.912543E-013
 0.912539E-013
 0.912534E-013
 0.912528E-013
 0.912521E-013
 0.912513E-013
 0.912503E-013
 0.912493E-013
 0.912481E-013
 0.912469E-013
 0.912455E-013
 0.912440E-013
 0.912424E-013
 0.912407E-013
 0.912390E-013
 0.912371E-013
 0.912352E-013
 0.912331E-013
 0.912310E-013
 0.912288E-013
 0.912265E-013
 0.912242E-013
 0.912218E-013
 0.912193E-013
 0.912167E-013
 0.912141E-013
 0.912115E-013
 0.912088E-013
 0.912060E-013
 0.912032E-013
 0.912003E-013
 0.911974E-013
 0.911945E-013
 0.911915E-013
 0.911885E-013
 0.911854E-013
 0.911824E-013
 0.911792E-013
 0.911761E-013
 0.911730E-013
 0.911698E-013
 0.911666E-013
 0.911633E-013
 0.911601E-013
 0.911568E-013
 0.911536E-013
 0.911503E-013
 0.911469E-013
 0.911436E-013
 0.911403E-013
 0.911369E-013
 0.911336E-013
 0.911302E-013
 0.911269E-013
 0.911231E-013
 0.911213E-013
 0.911112E-013
 0.911325E-013
 0.910498E-013
 0.912623E-013
 0.907715E-013
 0.916566E-013
 0.917325E-013
 0.907067E-013
 0.912727E-013
 0.910191E-013
 0.911112E-013
 0.910812E-013
 0.910881E-013
 0.910853E-013
 0.910847E-013
 0.910837E-013
 0.910828E-013
 0.910818E-013
 0.910809E-013
 0.910799E-013
 0.910790E-013
 0.910781E-013
 0.910771E-013
 0.910762E-013
 0.910753E-013
 0.910744E-013
 0.910735E-013
 0.910726E-013
 0.910717E-013
 0.910708E-013
 0.910699E-013
 0.910691E-013
 0.910682E-013
 0.910673E-013
 0.910665E-013
 0.910657E-013
 0.910648E-013
 0.910640E-013
 0.910632E-013
 0.910624E-013
 0.910617E-013
 0.910609E-013
 0.910602E-013
 0.910594E-013
 0.910587E-013
 0.910580E-013
 0.910574E-013
 0.910567E-013
 0.910561E-013
 0.910554E-013
 0.910549E-013
 0.910543E-013
 0.910537E-013
 0.910532E-013
 0.910527E-013
 0.910523E-013
 0.910518E-013
 0.910514E-013
 0.910510E-013
 0.910507E-013
 0.910504E-013
 0.910501E-013
 0.910498E-013
 0.910496E-013
 0.910494E-013
 0.910492E-013
 0.910491E-013
 0.910490E-013
 0.910489E-013
 0.910489E-013
 0.910489E-013
 0.910489E-013
 0.910490E-013
 0.910491E-013
 0.910492E-013
 0.910494E-013
 0.910496E-013
 0.910498E-013
 0.910501E-013
 0.910504E-013
 0.910507E-013
 0.910510E-013
 0.910514E-013
 0.910518E-013
 0.910523E-013
 0.910527E-013
 0.910532E-013
 0.910537E-013
 0.910543E-013
 0.910549E-013
 0.910554E-013
 0.910561E-013
 0.910567E-013
 0.910574E-013
 0.910580E-013
 0.910587E-013
 0.910594E-013
 0.910602E-013
 0.910609E-013
 0.910617E-013
 0.910624E-013
 0.910632E-013
 0.910640E-013
 0.910648E-013
 0.910657E-013
 0.910665E-013
 0.910673E-013
 0.910682E-013
 0.910691E-013
 0.910699E-013
 0.910708E-013
 0.910717E-013
 0.910726E-013
 0.910735E-013
 0.910744E-013
 0.910753E-013
 0.910762E-013
 0.910771E-013
 0.910781E-013
 0.910790E-013
 0.910799E-013
 0.910809E-013
 0.910818E-013
 0.910828E-013
 0.910837E-013
 0.910847E-013
 0.910853E-013
 0.910881E-013
 0.910812E-013
 0.911112E-013
 0.910191E-013
 0.912726E-013
 0.907067E-013
 0.917326E-013
 0.918187E-013
 0.906561E-013
 0.913032E-013
 0.910142E-013
 0.911213E-013
 0.910881E-013
 0.910974E-013
 0.910955E-013
 0.910961E-013
 0.910963E-013
 0.910965E-013
 0.910968E-013
 0.910970E-013
 0.910972E-013
 0.910975E-013
 0.910977E-013
 0.910979E-013
 0.910981E-013
 0.910984E-013
 0.910986E-013
 0.910988E-013
 0.910990E-013
 0.910992E-013
 0.910995E-013
 0.910997E-013
 0.910999E-013
 0.911001E-013
 0.911003E-013
 0.911005E-013
 0.911007E-013
 0.911009E-013
 0.911011E-013
 0.911013E-013
 0.911015E-013
 0.911017E-013
 0.911019E-013
 0.911021E-013
 0.911023E-013
 0.911025E-013
 0.911026E-013
 0.911028E-013
 0.911030E-013
 0.911031E-013
 0.911033E-013
 0.911034E-013
 0.911036E-013
 0.911037E-013
 0.911038E-013
 0.911040E-013
 0.911041E-013
 0.911042E-013
 0.911043E-013
 0.911044E-013
 0.911045E-013
 0.911046E-013
 0.911047E-013
 0.911047E-013
 0.911048E-013
 0.911048E-013
 0.911049E-013
 0.911049E-013
 0.911049E-013
 0.911050E-013
 0.911050E-013
 0.911050E-013
 0.911050E-013
 0.911049E-013
 0.911049E-013
 0.911049E-013
 0.911048E-013
 0.911048E-013
 0.911047E-013
 0.911047E-013
 0.911046E-013
 0.911045E-013
 0.911044E-013
 0.911043E-013
 0.911042E-013
 0.911041E-013
 0.911040E-013
 0.911038E-013
 0.911037E-013
 0.911036E-013
 0.911034E-013
 0.911033E-013
 0.911031E-013
 0.911030E-013
 0.911028E-013
 0.911026E-013
 0.911025E-013
 0.911023E-013
 0.911021E-013
 0.911019E-013
 0.911017E-013
 0.911015E-013
 0.911013E-013
 0.911011E-013
 0.911009E-013
 0.911007E-013
 0.911005E-013
 0.911003E-013
 0.911001E-013
 0.910999E-013
 0.910997E-013
 0.910995E-013
 0.910992E-013
 0.910990E-013
 0.910988E-013
 0.910986E-013
 0.910984E-013
 0.910981E-013
 0.910979E-013
 0.910977E-013
 0.910975E-013
 0.910972E-013
 0.910970E-013
 0.910968E-013
 0.910965E-013
 0.910963E-013
 0.910961E-013
 0.910955E-013
 0.910974E-013
 0.910881E-013
 0.911213E-013
 0.910142E-013
 0.913032E-013
 0.906561E-013
 0.918187E-013
 0.919021E-013
 0.906020E-013
 0.913284E-013
 0.910025E-013
 0.911231E-013
 0.910853E-013
 0.910955E-013
 0.910930E-013
 0.910934E-013
 0.910933E-013
 0.910933E-013
 0.910932E-013
 0.910932E-013
 0.910931E-013
 0.910931E-013
 0.910930E-013
 0.910930E-013
 0.910929E-013
 0.910929E-013
 0.910928E-013
 0.910928E-013
 0.910927E-013
 0.910927E-013
 0.910926E-013
 0.910926E-013
 0.910925E-013
 0.910925E-013
 0.910925E-013
 0.910924E-013
 0.910924E-013
 0.910923E-013
 0.910923E-013
 0.910923E-013
 0.910922E-013
 0.910922E-013
 0.910921E-013
 0.910921E-013
 0.910921E-013
 0.910920E-013
 0.910920E-013
 0.910920E-013
 0.910919E-013
 0.910919E-013
 0.910919E-013
 0.910919E-013
 0.910918E-013
 0.910918E-013
 0.910918E-013
 0.910918E-013
 0.910917E-013
 0.910917E-013
 0.910917E-013
 0.910917E-013
 0.910917E-013
 0.910917E-013
 0.910917E-013
 0.910916E-013
 0.910916E-013
 0.910916E-013
 0.910916E-013
 0.910916E-013
 0.910916E-013
 0.910916E-013
 0.910916E-013
 0.910916E-013
 0.910916E-013
 0.910916E-013
 0.910916E-013
 0.910916E-013
 0.910916E-013
 0.910916E-013
 0.910916E-013
 0.910917E-013
 0.910917E-013
 0.910917E-013
 0.910917E-013
 0.910917E-013
 0.910917E-013
 0.910917E-013
 0.910918E-013
 0.910918E-013
 0.910918E-013
 0.910918E-013
 0.910919E-013
 0.910919E-013
 0.910919E-013
 0.910919E-013
 0.910920E-013
 0.910920E-013
 0.910920E-013
 0.910921E-013
 0.910921E-013
 0.910921E-013
 0.910922E-013
 0.910922E-013
 0.910923E-013
 0.910923E-013
 0.910923E-013
 0.910924E-013
 0.910924E-013
 0.910925E-013
 0.910925E-013
 0.910925E-013
 0.910926E-013
 0.910926E-013
 0.910927E-013
 0.910927E-013
 0.910928E-013
 0.910928E-013
 0.910929E-013
 0.910929E-013
 0.910930E-013
 0.910930E-013
 0.910931E-013
 0.910931E-013
 0.910932E-013
 0.910932E-013
 0.910933E-013
 0.910933E-013
 0.910934E-013
 0.910930E-013
 0.910955E-013
 0.910853E-013
 0.911231E-013
 0.910025E-013
 0.913284E-013
 0.906020E-013
 0.919021E-013
 0.919858E-013
 0.905489E-013
 0.913548E-013
 0.909925E-013
 0.911269E-013
 0.910847E-013
 0.910961E-013
 0.910934E-013
 0.910940E-013
 0.910939E-013
 0.910940E-013
 0.910940E-013
 0.910940E-013
 0.910940E-013
 0.910940E-013
 0.910940E-013
 0.910940E-013
 0.910940E-013
 0.910940E-013
 0.910940E-013
 0.910941E-013
 0.910941E-013
 0.910941E-013
 0.910941E-013
 0.910941E-013
 0.910941E-013
 0.910941E-013
 0.910941E-013
 0.910941E-013
 0.910941E-013
 0.910942E-013
 0.910942E-013
 0.910942E-013
 0.910942E-013
 0.910942E-013
 0.910942E-013
 0.910942E-013
 0.910942E-013
 0.910943E-013
 0.910943E-013
 0.910943E-013
 0.910943E-013
 0.910943E-013
 0.910943E-013
 0.910943E-013
 0.910943E-013
 0.910944E-013
 0.910944E-013
 0.910944E-013
 0.910944E-013
 0.910944E-013
 0.910944E-013
 0.910944E-013
 0.910944E-013
 0.910944E-013
 0.910944E-013
 0.910944E-013
 0.910945E-013
 0.910945E-013
 0.910945E-013
 0.910945E-013
 0.910945E-013
 0.910945E-013
 0.910945E-013
 0.910945E-013
 0.910945E-013
 0.910945E-013
 0.910945E-013
 0.910945E-013
 0.910945E-013
 0.910945E-013
 0.910944E-013
 0.910944E-013
 0.910944E-013
 0.910944E-013
 0.910944E-013
 0.910944E-013
 0.910944E-013
 0.910944E-013
 0.910944E-013
 0.910944E-013
 0.910944E-013
 0.910943E-013
 0.910943E-013
 0.910943E-013
 0.910943E-013
 0.910943E-013
 0.910943E-013
 0.910943E-013
 0.910943E-013
 0.910942E-013
 0.910942E-013
 0.910942E-013
 0.910942E-013
 0.910942E-013
 0.910942E-013
 0.910942E-013
 0.910942E-013
 0.910941E-013
 0.910941E-013
 0.910941E-013
 0.910941E-013
 0.910941E-013
 0.910941E-013
 0.910941E-013
 0.910941E-013
 0.910941E-013
 0.910941E-013
 0.910940E-013
 0.910940E-013
 0.910940E-013
 0.910940E-013
 0.910940E-013
 0.910940E-013
 0.910940E-013
 0.910940E-013
 0.910940E-013
 0.910940E-013
 0.910939E-013
 0.910940E-013
 0.910934E-013
 0.910961E-013
 0.910847E-013
 0.911269E-013
 0.909925E-013
 0.913548E-013
 0.905489E-013
 0.919858E-013
 0.920691E-013
 0.904958E-013
 0.913808E-013
 0.909821E-013
 0.911302E-013
 0.910837E-013
 0.910963E-013
 0.910933E-013
 0.910939E-013
 0.910938E-013
 0.910938E-013
 0.910938E-013
 0.910938E-013
 0.910938E-013
 0.910938E-013
 0.910938E-013
 0.910938E-013
 0.910938E-013
 0.910938E-013
 0.910938E-013
 0.910938E-013
 0.910938E-013
 0.910938E-013
 0.910938E-013
 0.910938E-013
 0.910938E-013
 0.910938E-013
 0.910938E-013
 0.910938E-013
 0.910938E-013
 0.910938E-013
 0.910938E-013
 0.910938E-013
 0.910938E-013
 0.910938E-013
 0.910938E-013
 0.910938E-013
 0.910938E-013
 0.910938E-013
 0.910939E-013
 0.910939E-013
 0.910939E-013
 0.910939E-013
 0.910939E-013
 0.910939E-013
 0.910939E-013
 0.910939E-013
 0.910939E-013
 0.910939E-013
 0.910939E-013
 0.910939E-013
 0.910939E-013
 0.910939E-013
 0.910939E-013
 0.910939E-013
 0.910939E-013
 0.910939E-013
 0.910940E-013
 0.910940E-013
 0.910940E-013
 0.910940E-013
 0.910940E-013
 0.910940E-013
 0.910940E-013
 0.910940E-013
 0.910940E-013
 0.910940E-013
 0.910940E-013
 0.910940E-013
 0.910940E-013
 0.910940E-013
 0.910939E-013
 0.910939E-013
 0.910939E-013
 0.910939E-013
 0.910939E-013
 0.910939E-013
 0.910939E-013
 0.910939E-013
 0.910939E-013
 0.910939E-013
 0.910939E-013
 0.910939E-013
 0.910939E-013
 0.910939E-013
 0.910939E-013
 0.910939E-013
 0.910939E-013
 0.910939E-013
 0.910938E-013
 0.910938E-013
 0.910938E-013
 0.910938E-013
 0.910938E-013
 0.910938E-013
 0.910938E-013
 0.910938E-013
 0.910938E-013
 0.910938E-013
 0.910938E-013
 0.910938E-013
 0.910938E-013
 0.910938E-013
 0.910938E-013
 0.910938E-013
 0.910938E-013
 0.910938E-013
 0.910938E-013
 0.910938E-013
 0.910938E-013
 0.910938E-013
 0.910938E-013
 0.910938E-013
 0.910938E-013
 0.910938E-013
 0.910938E-013
 0.910938E-013
 0.910938E-013
 0.910938E-013
 0.910939E-013
 0.910933E-013
 0.910963E-013
 0.910837E-013
 0.911302E-013
 0.909821E-013
 0.913808E-013
 0.904958E-013
 0.920691E-013
 0.921522E-013
 0.904428E-013
 0.914068E-013
 0.909719E-013
 0.911336E-013
 0.910828E-013
 0.910965E-013
 0.910933E-013
 0.910940E-013
 0.910938E-013
 0.910938E-013
 0.910938E-013
 0.910938E-013
 0.910938E-013
 0.910938E-013
 0.910938E-013
 0.910938E-013
 0.910938E-013
 0.910938E-013
 0.910939E-013
 0.910939E-013
 0.910939E-013
 0.910939E-013
 0.910939E-013
 0.910939E-013
 0.910939E-013
 0.910939E-013
 0.910939E-013
 0.910939E-013
 0.910939E-013
 0.910939E-013
 0.910939E-013
 0.910939E-013
 0.910939E-013
 0.910939E-013
 0.910939E-013
 0.910939E-013
 0.910939E-013
 0.910939E-013
 0.910939E-013
 0.910939E-013
 0.910940E-013
 0.910940E-013
 0.910940E-013
 0.910940E-013
 0.910940E-013
 0.910940E-013
 0.910940E-013
 0.910940E-013