# vtk DataFile Version 3.0
Solution data
ASCII
DATASET STRUCTURED_GRID
DIMENSIONS 128 128 1
POINTS 16384  double
      0.000004      0.000004      0.000000
      0.000012      0.000004      0.000000
      0.000020      0.000004      0.000000
      0.000027      0.000004      0.000000
      0.000035      0.000004      0.000000
      0.000043      0.000004      0.000000
      0.000051      0.000004      0.000000
      0.000059      0.000004      0.000000
      0.000066      0.000004      0.000000
      0.000074      0.000004      0.000000
      0.000082      0.000004      0.000000
      0.000090      0.000004      0.000000
      0.000098      0.000004      0.000000
      0.000105      0.000004      0.000000
      0.000113      0.000004      0.000000
      0.000121      0.000004      0.000000
      0.000129      0.000004      0.000000
      0.000137      0.000004      0.000000
      0.000145      0.000004      0.000000
      0.000152      0.000004      0.000000
      0.000160      0.000004      0.000000
      0.000168      0.000004      0.000000
      0.000176      0.000004      0.000000
      0.000184      0.000004      0.000000
      0.000191      0.000004      0.000000
      0.000199      0.000004      0.000000
      0.000207      0.000004      0.000000
      0.000215      0.000004      0.000000
      0.000223      0.000004      0.000000
      0.000230      0.000004      0.000000
      0.000238      0.000004      0.000000
      0.000246      0.000004      0.000000
      0.000254      0.000004      0.000000
      0.000262      0.000004      0.000000
      0.000270      0.000004      0.000000
      0.000277      0.000004      0.000000
      0.000285      0.000004      0.000000
      0.000293      0.000004      0.000000
      0.000301      0.000004      0.000000
      0.000309      0.000004      0.000000
      0.000316      0.000004      0.000000
      0.000324      0.000004      0.000000
      0.000332      0.000004      0.000000
      0.000340      0.000004      0.000000
      0.000348      0.000004      0.000000
      0.000355      0.000004      0.000000
      0.000363      0.000004      0.000000
      0.000371      0.000004      0.000000
      0.000379      0.000004      0.000000
      0.000387      0.000004      0.000000
      0.000395      0.000004      0.000000
      0.000402      0.000004      0.000000
      0.000410      0.000004      0.000000
      0.000418      0.000004      0.000000
      0.000426      0.000004      0.000000
      0.000434      0.000004      0.000000
      0.000441      0.000004      0.000000
      0.000449      0.000004      0.000000
      0.000457      0.000004      0.000000
      0.000465      0.000004      0.000000
      0.000473      0.000004      0.000000
      0.000480      0.000004      0.000000
      0.000488      0.000004      0.000000
      0.000496      0.000004      0.000000
      0.000504      0.000004      0.000000
      0.000512      0.000004      0.000000
      0.000520      0.000004      0.000000
      0.000527      0.000004      0.000000
      0.000535      0.000004      0.000000
      0.000543      0.000004      0.000000
      0.000551      0.000004      0.000000
      0.000559      0.000004      0.000000
      0.000566      0.000004      0.000000
      0.000574      0.000004      0.000000
      0.000582      0.000004      0.000000
      0.000590      0.000004      0.000000
      0.000598      0.000004      0.000000
      0.000605      0.000004      0.000000
      0.000613      0.000004      0.000000
      0.000621      0.000004      0.000000
      0.000629      0.000004      0.000000
      0.000637      0.000004      0.000000
      0.000645      0.000004      0.000000
      0.000652      0.000004      0.000000
      0.000660      0.000004      0.000000
      0.000668      0.000004      0.000000
      0.000676      0.000004      0.000000
      0.000684      0.000004      0.000000
      0.000691      0.000004      0.000000
      0.000699      0.000004      0.000000
      0.000707      0.000004      0.000000
      0.000715      0.000004      0.000000
      0.000723      0.000004      0.000000
      0.000730      0.000004      0.000000
      0.000738      0.000004      0.000000
      0.000746      0.000004      0.000000
      0.000754      0.000004      0.000000
      0.000762      0.000004      0.000000
      0.000770      0.000004      0.000000
      0.000777      0.000004      0.000000
      0.000785      0.000004      0.000000
      0.000793      0.000004      0.000000
      0.000801      0.000004      0.000000
      0.000809      0.000004      0.000000
      0.000816      0.000004      0.000000
      0.000824      0.000004      0.000000
      0.000832      0.000004      0.000000
      0.000840      0.000004      0.000000
      0.000848      0.000004      0.000000
      0.000855      0.000004      0.000000
      0.000863      0.000004      0.000000
      0.000871      0.000004      0.000000
      0.000879      0.000004      0.000000
      0.000887      0.000004      0.000000
      0.000895      0.000004      0.000000
      0.000902      0.000004      0.000000
      0.000910      0.000004      0.000000
      0.000918      0.000004      0.000000
      0.000926      0.000004      0.000000
      0.000934      0.000004      0.000000
      0.000941      0.000004      0.000000
      0.000949      0.000004      0.000000
      0.000957      0.000004      0.000000
      0.000965      0.000004      0.000000
      0.000973      0.000004      0.000000
      0.000980      0.000004      0.000000
      0.000988      0.000004      0.000000
      0.000996      0.000004      0.000000
      0.000004      0.000012      0.000000
      0.000012      0.000012      0.000000
      0.000020      0.000012      0.000000
      0.000027      0.000012      0.000000
      0.000035      0.000012      0.000000
      0.000043      0.000012      0.000000
      0.000051      0.000012      0.000000
      0.000059      0.000012      0.000000
      0.000066      0.000012      0.000000
      0.000074      0.000012      0.000000
      0.000082      0.000012      0.000000
      0.000090      0.000012      0.000000
      0.000098      0.000012      0.000000
      0.000105      0.000012      0.000000
      0.000113      0.000012      0.000000
      0.000121      0.000012      0.000000
      0.000129      0.000012      0.000000
      0.000137      0.000012      0.000000
      0.000145      0.000012      0.000000
      0.000152      0.000012      0.000000
      0.000160      0.000012      0.000000
      0.000168      0.000012      0.000000
      0.000176      0.000012      0.000000
      0.000184      0.000012      0.000000
      0.000191      0.000012      0.000000
      0.000199      0.000012      0.000000
      0.000207      0.000012      0.000000
      0.000215      0.000012      0.000000
      0.000223      0.000012      0.000000
      0.000230      0.000012      0.000000
      0.000238      0.000012      0.000000
      0.000246      0.000012      0.000000
      0.000254      0.000012      0.000000
      0.000262      0.000012      0.000000
      0.000270      0.000012      0.000000
      0.000277      0.000012      0.000000
      0.000285      0.000012      0.000000
      0.000293      0.000012      0.000000
      0.000301      0.000012      0.000000
      0.000309      0.000012      0.000000
      0.000316      0.000012      0.000000
      0.000324      0.000012      0.000000
      0.000332      0.000012      0.000000
      0.000340      0.000012      0.000000
      0.000348      0.000012      0.000000
      0.000355      0.000012      0.000000
      0.000363      0.000012      0.000000
      0.000371      0.000012      0.000000
      0.000379      0.000012      0.000000
      0.000387      0.000012      0.000000
      0.000395      0.000012      0.000000
      0.000402      0.000012      0.000000
      0.000410      0.000012      0.000000
      0.000418      0.000012      0.000000
      0.000426      0.000012      0.000000
      0.000434      0.000012      0.000000
      0.000441      0.000012      0.000000
      0.000449      0.000012      0.000000
      0.000457      0.000012      0.000000
      0.000465      0.000012      0.000000
      0.000473      0.000012      0.000000
      0.000480      0.000012      0.000000
      0.000488      0.000012      0.000000
      0.000496      0.000012      0.000000
      0.000504      0.000012      0.000000
      0.000512      0.000012      0.000000
      0.000520      0.000012      0.000000
      0.000527      0.000012      0.000000
      0.000535      0.000012      0.000000
      0.000543      0.000012      0.000000
      0.000551      0.000012      0.000000
      0.000559      0.000012      0.000000
      0.000566      0.000012      0.000000
      0.000574      0.000012      0.000000
      0.000582      0.000012      0.000000
      0.000590      0.000012      0.000000
      0.000598      0.000012      0.000000
      0.000605      0.000012      0.000000
      0.000613      0.000012      0.000000
      0.000621      0.000012      0.000000
      0.000629      0.000012      0.000000
      0.000637      0.000012      0.000000
      0.000645      0.000012      0.000000
      0.000652      0.000012      0.000000
      0.000660      0.000012      0.000000
      0.000668      0.000012      0.000000
      0.000676      0.000012      0.000000
      0.000684      0.000012      0.000000
      0.000691      0.000012      0.000000
      0.000699      0.000012      0.000000
      0.000707      0.000012      0.000000
      0.000715      0.000012      0.000000
      0.000723      0.000012      0.000000
      0.000730      0.000012      0.000000
      0.000738      0.000012      0.000000
      0.000746      0.000012      0.000000
      0.000754      0.000012      0.000000
      0.000762      0.000012      0.000000
      0.000770      0.000012      0.000000
      0.000777      0.000012      0.000000
      0.000785      0.000012      0.000000
[...]
POINT_DATA 16384
SCALARS rhoe double
LOOKUP_TABLE default
 0.916258E-013
 0.912572E-013
 0.915388E-013
 0.915612E-013
 0.916705E-013
 0.917545E-013
 0.918446E-013
 0.919330E-013
 0.920214E-013
 0.921096E-013
 0.921974E-013
 0.922850E-013
 0.923723E-013
 0.924593E-013
 0.925459E-013
 0.926322E-013
 0.927181E-013
 0.928036E-013
 0.928886E-013
 0.929733E-013
 0.930574E-013
 0.931410E-013
 0.932240E-013
 0.933064E-013
 0.933882E-013
 0.934693E-013
 0.935496E-013
 0.936291E-013
 0.937078E-013
 0.937855E-013
 0.938623E-013
 0.939381E-013
 0.940127E-013
 0.940861E-013
 0.941583E-013
 0.942292E-013
 0.942986E-013
 0.943666E-013
 0.944330E-013
 0.944978E-013
 0.945608E-013
 0.946220E-013
 0.946813E-013
 0.947387E-013
 0.947940E-013
 0.948471E-013
 0.948980E-013
 0.949466E-013
 0.949928E-013
 0.950365E-013
 0.950777E-013
 0.951163E-013
 0.951522E-013
 0.951853E-013
 0.952156E-013
 0.952431E-013
 0.952677E-013
 0.952893E-013
 0.953078E-013
 0.953234E-013
 0.953359E-013
 0.953452E-013
 0.953515E-013
 0.953546E-013
 0.953546E-013
 0.953515E-013
 0.953452E-013
 0.953359E-013
 0.953234E-013
 0.953078E-013
 0.952893E-013
 0.952677E-013
 0.952431E-013
 0.952157E-013
 0.951853E-013
 0.951522E-013
 0.951163E-013
 0.950777E-013
 0.950365E-013
 0.949928E-013
 0.949466E-013
 0.948980E-013
 0.948471E-013
 0.947940E-013
 0.947387E-013
 0.946814E-013
 0.946220E-013
 0.945608E-013
 0.944978E-013
 0.944330E-013
 0.943666E-013
 0.942986E-013
 0.942292E-013
 0.941583E-013
 0.940861E-013
 0.940127E-013
 0.939381E-013
 0.938623E-013
 0.937856E-013
 0.937078E-013
 0.936291E-013
 0.935496E-013
 0.934693E-013
 0.933882E-013
 0.933064E-013
 0.932240E-013
 0.931410E-013
 0.930574E-013
 0.929733E-013
 0.928886E-013
 0.928036E-013
 0.927181E-013
 0.926322E-013
 0.925459E-013
 0.924593E-013
 0.923723E-013
 0.922850E-013
 0.921974E-013
 0.921096E-013
 0.920214E-013
 0.919330E-013
 0.918446E-013
 0.917545E-013
 0.916705E-013
 0.915612E-013
 0.915388E-013
 0.912572E-013
 0.916258E-013
 0.912572E-013
 0.907884E-013
 0.909452E-013
 0.908097E-013
 0.907840E-013
 0.907244E-013
 0.906738E-013
 0.906214E-013
 0.905695E-013
 0.905177E-013
 0.904661E-013
 0.904146E-013
 0.903634E-013
 0.903123E-013
 0.902614E-013
 0.902107E-013
 0.901602E-013
 0.901100E-013
 0.900600E-013
 0.900103E-013
 0.899609E-013
 0.899118E-013
 0.898630E-013
 0.898146E-013
 0.897665E-013
 0.897189E-013
 0.896716E-013
 0.896249E-013
 0.895786E-013
 0.895329E-013
 0.894878E-013
 0.894433E-013
 0.893994E-013
 0.893562E-013
 0.893137E-013
 0.892720E-013
 0.892312E-013
 0.891912E-013
 0.891521E-013
 0.891140E-013
 0.890769E-013
 0.890408E-013
 0.890059E-013
 0.889722E-013
 0.889396E-013
 0.889083E-013
 0.888783E-013
 0.888497E-013
 0.888225E-013
 0.887968E-013
 0.887725E-013
 0.887498E-013
 0.887286E-013
 0.887091E-013
 0.886912E-013
 0.886750E-013
 0.886606E-013
 0.886479E-013
 0.886369E-013
 0.886277E-013
 0.886204E-013
 0.886149E-013
 0.886112E-013
 0.886093E-013
 0.886093E-013
 0.886112E-013
 0.886149E-013
 0.886204E-013
 0.886277E-013
 0.886369E-013
 0.886479E-013
 0.886606E-013
 0.886751E-013
 0.886912E-013
 0.887091E-013
 0.887286E-013
 0.887498E-013
 0.887725E-013
 0.887968E-013
 0.888225E-013
 0.888497E-013
 0.888784E-013
 0.889083E-013
 0.889396E-013
 0.889722E-013
 0.890059E-013
 0.890409E-013
 0.890769E-013
 0.891140E-013
 0.891521E-013
 0.891912E-013
 0.892312E-013
 0.892720E-013
 0.893137E-013
 0.893562E-013
 0.893994E-013
 0.894433E-013
 0.894878E-013
 0.895330E-013
 0.895787E-013
 0.896249E-013
 0.896717E-013
 0.897189E-013
 0.897665E-013
 0.898146E-013
 0.898630E-013
 0.899118E-013
 0.899609E-013
 0.900103E-013
 0.900601E-013
 0.901100E-013
 0.901603E-013
 0.902107E-013
 0.902614E-013
 0.903123E-013
 0.903634E-013
 0.904146E-013
 0.904661E-013
 0.905177E-013
 0.905695E-013
 0.906214E-013
 0.906738E-013
 0.907244E-013
 0.907840E-013
 0.908097E-013
 0.909453E-013
 0.907884E-013
 0.912572E-013
 0.915388E-013
 0.909452E-013
 0.912701E-013
 0.911752E-013
 0.912366E-013
 0.912493E-013
 0.912748E-013
 0.912973E-013
 0.913204E-013
 0.913433E-013
 0.913661E-013
 0.913888E-013
 0.914115E-013
 0.914340E-013
 0.914565E-013
 0.914789E-013
 0.915012E-013
 0.915233E-013
 0.915454E-013
 0.915673E-013
 0.915891E-013
 0.916108E-013
 0.916323E-013
 0.916537E-013
 0.916749E-013
 0.916959E-013
 0.917168E-013
 0.917374E-013
 0.917578E-013
 0.917779E-013
 0.917979E-013
 0.918175E-013
 0.918368E-013
 0.918559E-013
 0.918746E-013
 0.918930E-013
 0.919110E-013
 0.919286E-013
 0.919459E-013
 0.919627E-013
 0.919790E-013
 0.919949E-013
 0.920103E-013
 0.920252E-013
 0.920395E-013
 0.920533E-013
 0.920665E-013
 0.920791E-013
 0.920911E-013
 0.921025E-013
 0.921132E-013
 0.921232E-013
 0.921325E-013
 0.921411E-013
 0.921490E-013
 0.921561E-013
 0.921625E-013
 0.921681E-013
 0.921729E-013
 0.921770E-013
 0.921802E-013
 0.921826E-013
 0.921843E-013
 0.921851E-013
 0.921851E-013
 0.921843E-013
 0.921826E-013
 0.921802E-013
 0.921770E-013
 0.921729E-013
 0.921681E-013
 0.921625E-013
 0.921561E-013
 0.921490E-013
 0.921411E-013
 0.921325E-013
 0.921232E-013
 0.921132E-013
 0.921025E-013
 0.920911E-013
 0.920791E-013
 0.920665E-013
 0.920533E-013
 0.920395E-013
 0.920252E-013
 0.920103E-013
 0.919949E-013
 0.919790E-013
 0.919627E-013
 0.919459E-013
 0.919286E-013
 0.919110E-013
 0.918930E-013
 0.918746E-013
 0.918559E-013
 0.918368E-013
 0.918175E-013
 0.917978E-013
 0.917779E-013
 0.917578E-013
 0.917374E-013
 0.917167E-013
 0.916959E-013
 0.916749E-013
 0.916537E-013
 0.916323E-013
 0.916108E-013
 0.915891E-013
 0.915673E-013
 0.915454E-013
 0.915233E-013
 0.915012E-013
 0.914789E-013
 0.914565E-013
 0.914340E-013
 0.914115E-013
 0.913888E-013
 0.913661E-013
 0.913433E-013
 0.913204E-013
 0.912973E-013
 0.912748E-013
 0.912493E-013
 0.912365E-013
 0.911751E-013
 0.912701E-013
 0.909453E-013
 0.915388E-013
 0.915612E-013
 0.908097E-013
 0.911752E-013
 0.910182E-013
 0.910586E-013
 0.910372E-013
 0.910322E-013
 0.910235E-013
 0.910156E-013
 0.910075E-013
 0.909995E-013
 0.909915E-013
 0.909836E-013
 0.909757E-013
 0.909678E-013
 0.909600E-013
 0.909521E-013
 0.909444E-013
 0.909366E-013
 0.909289E-013
 0.909213E-013
 0.909137E-013
 0.909061E-013
 0.908986E-013
 0.908912E-013
 0.908838E-013
 0.908765E-013
 0.908693E-013
 0.908621E-013
 0.908551E-013
 0.908481E-013
 0.908412E-013
 0.908344E-013
 0.908277E-013
 0.908212E-013
 0.908147E-013
 0.908084E-013
 0.908022E-013
 0.907962E-013
 0.907903E-013
 0.907846E-013
 0.907790E-013
 0.907736E-013
 0.907684E-013
 0.907634E-013
 0.907585E-013
 0.907539E-013
 0.907495E-013
 0.907453E-013
 0.907413E-013
 0.907375E-013
 0.907340E-013
 0.907308E-013
 0.907277E-013
 0.907250E-013
 0.907225E-013
 0.907202E-013
 0.907183E-013
 0.907166E-013
 0.907152E-013
 0.907140E-013
 0.907132E-013
 0.907126E-013
 0.907123E-013
 0.907123E-013
 0.907126E-013
 0.907132E-013
 0.907140E-013
 0.907152E-013
 0.907166E-013
 0.907183E-013
 0.907202E-013
 0.907225E-013
 0.907250E-013
 0.907277E-013
 0.907308E-013
 0.907340E-013
 0.907375E-013
 0.907413E-013
 0.907453E-013
 0.907495E-013
 0.907539E-013
 0.907585E-013
 0.907634E-013
 0.907684E-013
 0.907736E-013
 0.907790E-013
 0.907846E-013
 0.907903E-013
 0.907962E-013
 0.908022E-013
 0.908084E-013
 0.908147E-013
 0.908212E-013
 0.908278E-013
 0.908344E-013
 0.908412E-013
 0.908481E-013
 0.908551E-013
 0.908622E-013
 0.908693E-013
 0.908765E-013
 0.908838E-013
 0.908912E-013
 0.908987E-013
 0.909061E-013
 0.909137E-013
 0.909213E-013
 0.909289E-013
 0.909366E-013
 0.909444E-013
 0.909522E-013
 0.909600E-013
 0.909678E-013
 0.909757E-013
 0.909836E-013
 0.909915E-013
 0.909995E-013
 0.910075E-013
 0.910156E-013
 0.910235E-013
 0.910322E-013
 0.910372E-013
 0.910586E-013
 0.910182E-013
 0.911751E-013
 0.908097E-013
 0.915612E-013
 0.916705E-013
 0.907840E-013
 0.912366E-013
 0.910586E-013
 0.911200E-013
 0.911061E-013
 0.911123E-013
 0.911138E-013
 0.911163E-013
 0.911186E-013
 0.911209E-013
 0.911232E-013
 0.911255E-013
 0.911278E-013
 0.911301E-013
 0.911324E-013
 0.911346E-013
 0.911369E-013
 0.911391E-013
 0.911413E-013
 0.911436E-013
 0.911458E-013
 0.911479E-013
 0.911501E-013
 0.911523E-013
 0.911544E-013
 0.911565E-013
 0.911586E-013
 0.911607E-013
 0.911627E-013
 0.911648E-013
 0.911668E-013
 0.911687E-013
 0.911707E-013
 0.911726E-013
 0.911744E-013
 0.911763E-013
 0.911780E-013
 0.911798E-013
 0.911815E-013
 0.911832E-013
 0.911848E-013
 0.911863E-013
 0.911879E-013
 0.911893E-013
 0.911907E-013
 0.911921E-013
 0.911933E-013
 0.911946E-013
 0.911957E-013
 0.911968E-013
 0.911978E-013
 0.911988E-013
 0.911997E-013
 0.912005E-013
 0.912012E-013
 0.912018E-013
 0.912024E-013
 0.912029E-013
 0.912033E-013
 0.912036E-013
 0.912039E-013
 0.912040E-013
 0.912041E-013
 0.912041E-013
 0.912040E-013
 0.912039E-013
 0.912036E-013
 0.912033E-013
 0.912029E-013
 0.912024E-013
 0.912018E-013
 0.912012E-013
 0.912005E-013
 0.911997E-013
 0.911988E-013
 0.911978E-013
 0.911968E-013
 0.911957E-013
 0.911946E-013
 0.911933E-013
 0.911921E-013
 0.911907E-013
 0.911893E-013
 0.911879E-013
 0.911863E-013
 0.911848E-013
 0.911832E-013
 0.911815E-013
 0.911798E-013
 0.911780E-013
 0.911763E-013
 0.911744E-013
 0.911726E-013
 0.911707E-013
 0.911687E-013
 0.911668E-013
 0.911648E-013
 0.911627E-013
 0.911607E-013
 0.911586E-013
 0.911565E-013
 0.911544E-013
 0.911523E-013
 0.911501E-013
 0.911479E-013
 0.911458E-013
 0.911436E-013
 0.911413E-013
 0.911391E-013
 0.911369E-013
 0.911346E-013
 0.911324E-013
 0.911301E-013
 0.911278E-013
 0.911255E-013
 0.911232E-013
 0.911209E-013
 0.911186E-013
 0.911163E-013
 0.911138E-013
 0.911123E-013
 0.911061E-013
 0.911200E-013
 0.910586E-013
 0.912365E-013
 0.907840E-013
 0.916705E-013
 0.917545E-013
 0.907244E-013
 0.912493E-013
 0.910372E-013
 0.911061E-013
 0.910863E-013
 0.910903E-013
 0.910888E-013
 0.910884E-013
 0.910878E-013
 0.910872E-013
 0.910867E-013
 0.910861E-013
 0.910855E-013
 0.910850E-013
 0.910844E-013
 0.910839E-013
 0.910833E-013
 0.910828E-013
 0.910822E-013
 0.910817E-013
 0.910811E-013
 0.910806E-013
 0.910801E-013
 0.910795E-013
 0.910790E-013
 0.910785E-013
 0.910780E-013
 0.910775E-013
 0.910770E-013
 0.910765E-013
 0.910760E-013
 0.910755E-013
 0.910750E-013
 0.910746E-013
 0.910741E-013
 0.910737E-013
 0.910732E-013
 0.910728E-013
 0.910724E-013
 0.910720E-013
 0.910716E-013
 0.910712E-013
 0.910708E-013
 0.910705E-013
 0.910702E-013
 0.910698E-013
 0.910695E-013
 0.910692E-013
 0.910689E-013
 0.910687E-013
 0.910684E-013
 0.910682E-013
 0.910680E-013
 0.910678E-013
 0.910676E-013
 0.910675E-013
 0.910673E-013
 0.910672E-013
 0.910671E-013
 0.910670E-013
 0.910670E-013
 0.910669E-013
 0.910669E-013
 0.910669E-013
 0.910669E-013
 0.910670E-013
 0.910670E-013
 0.910671E-013
 0.910672E-013
 0.910673E-013
 0.910675E-013
 0.910676E-013
 0.910678E-013
 0.910680E-013
 0.910682E-013
 0.910684E-013
 0.910687E-013
 0.910689E-013
 0.910692E-013
 0.910695E-013
 0.910698E-013
 0.910702E-013
 0.910705E-013
 0.910708E-013
 0.910712E-013
 0.910716E-013
 0.910720E-013
 0.910724E-013
 0.910728E-013
 0.910732E-013
 0.910737E-013
 0.910741E-013
 0.910746E-013
 0.910750E-013
 0.910755E-013
 0.910760E-013
 0.910765E-013
 0.910770E-013
 0.910775E-013
 0.910780E-013
 0.910785E-013
 0.910790E-013
 0.910795E-013
 0.910801E-013
 0.910806E-013
 0.910811E-013
 0.910817E-013
 0.910822E-013
 0.910828E-013
 0.910833E-013
 0.910839E-013
 0.910844E-013
 0.910850E-013
 0.910855E-013
 0.910861E-013
 0.910867E-013
 0.910872E-013
 0.910878E-013
 0.910884E-013
 0.910888E-013
 0.910903E-013
 0.910863E-013
 0.911061E-013
 0.910372E-013
 0.912493E-013
 0.907244E-013
 0.917545E-013
 0.918446E-013
 0.906738E-013
 0.912748E-013
 0.910322E-013
 0.911123E-013
 0.910903E-013
 0.910957E-013
 0.910947E-013
 0.910950E-013
 0.910951E-013
 0.910952E-013
 0.910954E-013
 0.910955E-013
 0.910956E-013
 0.910957E-013
 0.910958E-013
 0.910960E-013
 0.910961E-013
 0.910962E-013
 0.910963E-013
 0.910964E-013
 0.910965E-013
 0.910967E-013
 0.910968E-013
 0.910969E-013
 0.910970E-013
 0.910971E-013
 0.910972E-013
 0.910973E-013
 0.910974E-013
 0.910976E-013
 0.910977E-013
 0.910978E-013
 0.910979E-013
 0.910980E-013
 0.910981E-013
 0.910982E-013
 0.910983E-013
 0.910984E-013
 0.910985E-013
 0.910986E-013
 0.910986E-013
 0.910987E-013
 0.910988E-013
 0.910989E-013
 0.910990E-013
 0.910990E-013
 0.910991E-013
 0.910992E-013
 0.910992E-013
 0.910993E-013
 0.910994E-013
 0.910994E-013
 0.910995E-013
 0.910995E-013
 0.910996E-013
 0.910996E-013
 0.910996E-013
 0.910997E-013
 0.910997E-013
 0.910997E-013
 0.910997E-013
 0.910997E-013
 0.910997E-013
 0.910997E-013
 0.910997E-013
 0.910997E-013
 0.910997E-013
 0.910997E-013
 0.910997E-013
 0.910996E-013
 0.910996E-013
 0.910996E-013
 0.910995E-013
 0.910995E-013
 0.910994E-013
 0.910994E-013
 0.910993E-013
 0.910992E-013
 0.910992E-013
 0.910991E-013
 0.910990E-013
 0.910990E-013
 0.910989E-013
 0.910988E-013
 0.910987E-013
 0.910986E-013
 0.910986E-013
 0.910985E-013
 0.910984E-013
 0.910983E-013
 0.910982E-013
 0.910981E-013
 0.910980E-013
 0.910979E-013
 0.910978E-013
 0.910977E-013
 0.910976E-013
 0.910974E-013
 0.910973E-013
 0.910972E-013
 0.910971E-013
 0.910970E-013
 0.910969E-013
 0.910968E-013
 0.910967E-013
 0.910965E-013
 0.910964E-013
 0.910963E-013
 0.910962E-013
 0.910961E-013
 0.910960E-013
 0.910958E-013
 0.910957E-013
 0.910956E-013
 0.910955E-013
 0.910954E-013
 0.910952E-013
 0.910951E-013
 0.910950E-013
 0.910947E-013
 0.910957E-013
 0.910903E-013
 0.911123E-013
 0.910322E-013
 0.912748E-013
 0.906738E-013
 0.918446E-013
 0.919330E-013
 0.906214E-013
 0.912973E-013
 0.910235E-013
 0.911138E-013
 0.910888E-013
 0.910947E-013
 0.910934E-013
 0.910936E-013
 0.910936E-013
 0.910936E-013
 0.910935E-013
 0.910935E-013
 0.910935E-013
 0.910935E-013
 0.910935E-013
 0.910934E-013
 0.910934E-013
 0.910934E-013
 0.910934E-013
 0.910934E-013
 0.910933E-013
 0.910933E-013
 0.910933E-013
 0.910933E-013
 0.910933E-013
 0.910932E-013
 0.910932E-013
 0.910932E-013
 0.910932E-013
 0.910932E-013
 0.910931E-013
 0.910931E-013
 0.910931E-013
 0.910931E-013
 0.910931E-013
 0.910931E-013
 0.910931E-013
 0.910931E-013
 0.910930E-013
 0.910930E-013
 0.910930E-013
 0.910930E-013
 0.910930E-013
 0.910930E-013
 0.910930E-013
 0.910930E-013
 0.910930E-013
 0.910930E-013
 0.910930E-013
 0.910929E-013
 0.910929E-013
 0.910929E-013
 0.910929E-013
 0.910929E-013
 0.910929E-013
 0.910929E-013
 0.910929E-013
 0.910929E-013
 0.910929E-013
 0.910929E-013
 0.910929E-013
 0.910929E-013
 0.910929E-013
 0.910929E-013
 0.910929E-013
 0.910929E-013
 0.910929E-013
 0.910929E-013
 0.910929E-013
 0.910929E-013
 0.910929E-013
 0.910929E-013
 0.910929E-013
 0.910929E-013
 0.910929E-013
 0.910929E-013
 0.910929E-013
 0.910930E-013
 0.910930E-013
 0.910930E-013
 0.910930E-013
 0.910930E-013
 0.910930E-013
 0.910930E-013
 0.910930E-013
 0.910930E-013
 0.910930E-013
 0.910930E-013
 0.910931E-013
 0.910931E-013
 0.910931E-013
 0.910931E-013
 0.910931E-013
 0.910931E-013
 0.910931E-013
 0.910932E-013
 0.910932E-013
 0.910932E-013
 0.910932E-013
 0.910932E-013
 0.910932E-013
 0.910933E-013
 0.910933E-013
 0.910933E-013
 0.910933E-013
 0.910933E-013
 0.910934E-013
 0.910934E-013
 0.910934E-013
 0.910934E-013
 0.910934E-013
 0.910935E-013
 0.910935E-013
 0.910935E-013
 0.910935E-013
 0.910935E-013
 0.910936E-013
 0.910936E-013
 0.910937E-013
 0.910934E-013
 0.910947E-013
 0.910888E-013
 0.911138E-013
 0.910235E-013
 0.912973E-013
 0.906214E-013
 0.919330E-013
 0.920214E-013
 0.905695E-013
 0.913204E-013
 0.910156E-013
 0.911163E-013
 0.910884E-013
 0.910950E-013
 0.910936E-013
 0.910939E-013
 0.910939E-013
 0.910939E-013
 0.910939E-013
 0.910939E-013
 0.910939E-013
 0.910939E-013
 0.910939E-013
 0.910939E-013
 0.910939E-013
 0.910939E-013
 0.910939E-013
 0.910939E-013
 0.910939E-013
 0.910939E-013
 0.910939E-013
 0.910939E-013
 0.910940E-013
 0.910940E-013
 0.910940E-013
 0.910940E-013
 0.910940E-013
 0.910940E-013
 0.910940E-013
 0.910940E-013
 0.910940E-013
 0.910940E-013
 0.910940E-013
 0.910940E-013
 0.910940E-013
 0.910940E-013
 0.910941E-013
 0.910941E-013
 0.910941E-013
 0.910941E-013
 0.910941E-013
 0.910941E-013
 0.910941E-013
 0.910941E-013
 0.910941E-013
 0.910941E-013
 0.910941E-013
 0.910942E-013
 0.910942E-013
 0.910942E-013
 0.910942E-013
 0.910942E-013
 0.910942E-013
 0.910942E-013
 0.910942E-013
 0.910942E-013
 0.910942E-013
 0.910942E-013
 0.910942E-013
 0.910942E-013
 0.910942E-013
 0.910942E-013
 0.910942E-013
 0.910942E-013
 0.910942E-013
 0.910942E-013
 0.910942E-013
 0.910942E-013
 0.910942E-013
 0.910942E-013
 0.910942E-013
 0.910942E-013
 0.910942E-013
 0.910942E-013
 0.910942E-013
 0.910941E-013
 0.910941E-013
 0.910941E-013
 0.910941E-013
 0.910941E-013
 0.910941E-013
 0.910941E-013
 0.910941E-013
 0.910941E-013
 0.910941E-013
 0.910941E-013
 0.910940E-013
 0.910940E-013
 0.910940E-013
 0.910940E-013
 0.910940E-013
 0.910940E-013
 0.910940E-013
 0.910940E-013
 0.910940E-013
 0.910940E-013
 0.910940E-013
 0.910940E-013
 0.910940E-013
 0.910940E-013
 0.910939E-013
 0.910939E-013
 0.910939E-013
 0.910939E-013
 0.910939E-013
 0.910939E-013
 0.910939E-013
 0.910939E-013
 0.910939E-013
 0.910939E-013
 0.910939E-013
 0.910939E-013
 0.910939E-013
 0.910939E-013
 0.910939E-013
 0.910939E-013
 0.910939E-013
 0.910937E-013
 0.910950E-013
 0.910884E-013
 0.911163E-013
 0.910156E-013
 0.913204E-013
 0.905695E-013
 0.920214E-013
 0.921096E-013
 0.905177E-013
 0.913433E-013
 0.910075E-013
 0.911186E-013
 0.910878E-013
 0.910951E-013
 0.910936E-013
 0.910939E-013
 0.910938E-013
 0.910938E-013
 0.910938E-013
 0.910938E-013
 0.910938E-013
 0.910938E-013
 0.910938E-013
 0.910938E-013
 0.910938E-013
 0.910938E-013
 0.910938E-013
 0.910938E-013
 0.910938E-013
 0.910938E-013
 0.910938E-013
 0.910938E-013
 0.910938E-013
 0.910938E-013
 0.910938E-013
 0.910938E-013
 0.910939E-013
 0.910939E-013
 0.910939E-013
 0.910939E-013
 0.910939E-013
 0.910939E-013
 0.910939E-013
 0.910939E-013
 0.910939E-013
 0.910939E-013
 0.910939E-013
 0.910939E-013
 0.910939E-013
 0.910939E-013
 0.910939E-013
 0.910939E-013
 0.910939E-013
 0.910940E-013
 0.910940E-013
 0.910940E-013
 0.910940E-013
 0.910940E-013
 0.910940E-013
 0.910940E-013
 0.910940E-013
 0.910940E-013
 0.910940E-013
 0.910940E-013
 0.910940E-013
 0.910940E-013
 0.910940E-013
 0.910940E-013
 0.910940E-013
 0.910940E-013
 0.910940E-013
 0.910940E-013
 0.910940E-013
 0.910940E-013
 0.910940E-013
 0.910940E-013
 0.910940E-013
 0.910940E-013
 0.910940E-013
 0.910940E-013
 0.910940E-013
 0.910940E-013
 0.910940E-013
 0.910940E-013
 0.910940E-013
 0.910940E-013
 0.910940E-013
 0.910940E-013
 0.910940E-013
 0.910939E-013
 0.910939E-013
 0.910939E-013
 0.910939E-013
 0.910939E-013
 0.910939E-013
 0.910939E-013
 0.910939E-013
 0.910939E-013
 0.910939E-013
 0.910939E-013
 0.910939E-013
 0.910939E-013
 0.910939E-013
 0.910939E-013
 0.910939E-013
 0.910939E-013
 0.910938E-013
 0.910938E-013
 0.910938E-013
 0.910938E-013
 0.910938E-013
 0.910938E-013
 0.910938E-013
 0.910938E-013
 0.910938E-013
 0.910938E-013
 0.910938E-013
 0.910938E-013
 0.910938E-013
 0.910938E-013
 0.910938E-013
 0.910938E-013
 0.910938E-013
 0.910938E-013
 0.910938E-013
 0.910938E-013
 0.910939E-013
 0.910936E-013
 0.910951E-013
 0.910878E-013
 0.911186E-013
 0.910075E-013
 0.913433E-013
 0.905177E-013
 0.921096E-013
 0.921974E-013
 0.904661E-013
 0.913661E-013
 0.909995E-013
 0.911209E-013
 0.910872E-013
 0.910952E-013
 0.910936E-013
 0.910939E-013
 0.910938E-013
 0.910938E-013
 0.910938E-013
 0.910938E-013
 0.910938E-013
 0.910938E-013
 0.910938E-013
 0.910938E-013
 0.910938E-013
 0.910938E-013
 0.910938E-013
 0.910938E-013
 0.910939E-013
 0.910939E-013
 0.910939E-013
 0.910939E-013
 0.910939E-013
 0.910939E-013
 0.910939E-013
 0.910939E-013
 0.910939E-013
 0.910939E-013
 0.910939E-013
 0.910939E-013
 0.910939E-013
 0.910939E-013
 0.910939E-013
 0.910939E-013
 0.910939E-013
 0.910939E-013
 0.910939E-013
 0.910940E-013
 0.910940E-013
 0.910940E-013
 0.910940E-013
 0.910940E-013
 0.910940E-013
 0.910940E-013
 0.910940E-013
 0.910940E-013