# vtk DataFile Version 3.0
Solution data
ASCII
DATASET STRUCTURED_GRID
DIMENSIONS 128 128 1
POINTS 16384  double
      0.000004      0.000004      0.000000
      0.000012      0.000004      0.000000
      0.000020      0.000004      0.000000
      0.000027      0.000004      0.000000
      0.000035      0.000004      0.000000
      0.000043      0.000004      0.000000
      0.000051      0.000004      0.000000
      0.000059      0.000004      0.000000
      0.000066      0.000004      0.000000
      0.000074      0.000004      0.000000
      0.000082      0.000004      0.000000
      0.000090      0.000004      0.000000
      0.000098      0.000004      0.000000
      0.000105      0.000004      0.000000
      0.000113      0.000004      0.000000
      0.000121      0.000004      0.000000
      0.000129      0.000004      0.000000
      0.000137      0.000004      0.000000
      0.000145      0.000004      0.000000
      0.000152      0.000004      0.000000
      0.000160      0.000004      0.000000
      0.000168      0.000004      0.000000
      0.000176      0.000004      0.000000
      0.000184      0.000004      0.000000
      0.000191      0.000004      0.000000
      0.000199      0.000004      0.000000
      0.000207      0.000004      0.000000
      0.000215      0.000004      0.000000
      0.000223      0.000004      0.000000
      0.000230      0.000004      0.000000
      0.000238      0.000004      0.000000
      0.000246      0.000004      0.000000
      0.000254      0.000004      0.000000
      0.000262      0.000004      0.000000
      0.000270      0.000004      0.000000
      0.000277      0.000004      0.000000
      0.000285      0.000004      0.000000
      0.000293      0.000004      0.000000
      0.000301      0.000004      0.000000
      0.000309      0.000004      0.000000
      0.000316      0.000004      0.000000
      0.000324      0.000004      0.000000
      0.000332      0.000004      0.000000
      0.000340      0.000004      0.000000
      0.000348      0.000004      0.000000
      0.000355      0.000004      0.000000
      0.000363      0.000004      0.000000
      0.000371      0.000004      0.000000
      0.000379      0.000004      0.000000
      0.000387      0.000004      0.000000
      0.000395      0.000004      0.000000
      0.000402      0.000004      0.000000
      0.000410      0.000004      0.000000
      0.000418      0.000004      0.000000
      0.000426      0.000004      0.000000
      0.000434      0.000004      0.000000
      0.000441      0.000004      0.000000
      0.000449      0.000004      0.000000
      0.000457      0.000004      0.000000
      0.000465      0.000004      0.000000
      0.000473      0.000004      0.000000
      0.000480      0.000004      0.000000
      0.000488      0.000004      0.000000
      0.000496      0.000004      0.000000
      0.000504      0.000004      0.000000
      0.000512      0.000004      0.000000
      0.000520      0.000004      0.000000
      0.000527      0.000004      0.000000
      0.000535      0.000004      0.000000
      0.000543      0.000004      0.000000
      0.000551      0.000004      0.000000
      0.000559      0.000004      0.000000
      0.000566      0.000004      0.000000
      0.000574      0.000004      0.000000
      0.000582      0.000004      0.000000
      0.000590      0.000004      0.000000
      0.000598      0.000004      0.000000
      0.000605      0.000004      0.000000
      0.000613      0.000004      0.000000
      0.000621      0.000004      0.000000
      0.000629      0.000004      0.000000
      0.000637      0.000004      0.000000
      0.000645      0.000004      0.000000
      0.000652      0.000004      0.000000
      0.000660      0.000004      0.000000
      0.000668      0.000004      0.000000
      0.000676      0.000004      0.000000
      0.000684      0.000004      0.000000
      0.000691      0.000004      0.000000
      0.000699      0.000004      0.000000
      0.000707      0.000004      0.000000
      0.000715      0.000004      0.000000
      0.000723      0.000004      0.000000
      0.000730      0.000004      0.000000
      0.000738      0.000004      0.000000
      0.000746      0.000004      0.000000
      0.000754      0.000004      0.000000
      0.000762      0.000004      0.000000
      0.000770      0.000004      0.000000
      0.000777      0.000004      0.000000
      0.000785      0.000004      0.000000
      0.000793      0.000004      0.000000
      0.000801      0.000004      0.000000
      0.000809      0.000004      0.000000
      0.000816      0.000004      0.000000
      0.000824      0.000004      0.000000
      0.000832      0.000004      0.000000
      0.000840      0.000004      0.000000
      0.000848      0.000004      0.000000
      0.000855      0.000004      0.000000
      0.000863      0.000004      0.000000
      0.000871      0.000004      0.000000
      0.000879      0.000004      0.000000
      0.000887      0.000004      0.000000
      0.000895      0.000004      0.000000
      0.000902      0.000004      0.000000
      0.000910      0.000004      0.000000
      0.000918      0.000004      0.000000
      0.000926      0.000004      0.000000
      0.000934      0.000004      0.000000
      0.000941      0.000004      0.000000
      0.000949      0.000004      0.000000
      0.000957      0.000004      0.000000
      0.000965      0.000004      0.000000
      0.000973      0.000004      0.000000
      0.000980      0.000004      0.000000
      0.000988      0.000004      0.000000
      0.000996      0.000004      0.000000
      0.000004      0.000012      0.000000
      0.000012      0.000012      0.000000
      0.000020      0.000012      0.000000
      0.000027      0.000012      0.000000
      0.000035      0.000012      0.000000
      0.000043      0.000012      0.000000
      0.000051      0.000012      0.000000
      0.000059      0.000012      0.000000
      0.000066      0.000012      0.000000
      0.000074      0.000012      0.000000
      0.000082      0.000012      0.000000
      0.000090      0.000012      0.000000
      0.000098      0.000012      0.000000
      0.000105      0.000012      0.000000
      0.000113      0.000012      0.000000
      0.000121      0.000012      0.000000
      0.000129      0.000012      0.000000
      0.000137      0.000012      0.000000
      0.000145      0.000012      0.000000
      0.000152      0.000012      0.000000
      0.000160      0.000012      0.000000
      0.000168      0.000012      0.000000
      0.000176      0.000012      0.000000
      0.000184      0.000012      0.000000
      0.000191      0.000012      0.000000
      0.000199      0.000012      0.000000
      0.000207      0.000012      0.000000
      0.000215      0.000012      0.000000
      0.000223      0.000012      0.000000
      0.000230      0.000012      0.000000
      0.000238      0.000012      0.000000
      0.000246      0.000012      0.000000
      0.000254      0.000012      0.000000
      0.000262      0.000012      0.000000
      0.000270      0.000012      0.000000
      0.000277      0.000012      0.000000
      0.000285      0.000012      0.000000
      0.000293      0.000012      0.000000
      0.000301      0.000012      0.000000
      0.000309      0.000012      0.000000
      0.000316      0.000012      0.000000
      0.000324      0.000012      0.000000
      0.000332      0.000012      0.000000
      0.000340      0.000012      0.000000
      0.000348      0.000012      0.000000
      0.000355      0.000012      0.000000
      0.000363      0.000012      0.000000
      0.000371      0.000012      0.000000
      0.000379      0.000012      0.000000
      0.000387      0.000012      0.000000
      0.000395      0.000012      0.000000
      0.000402      0.000012      0.000000
      0.000410      0.000012      0.000000
      0.000418      0.000012      0.000000
      0.000426      0.000012      0.000000
      0.000434      0.000012      0.000000
      0.000441      0.000012      0.000000
      0.000449      0.000012      0.000000
      0.000457      0.000012      0.000000
      0.000465      0.000012      0.000000
      0.000473      0.000012      0.000000
      0.000480      0.000012      0.000000
      0.000488      0.000012      0.000000
      0.000496      0.000012      0.000000
      0.000504      0.000012      0.000000
      0.000512      0.000012      0.000000
      0.000520      0.000012      0.000000
      0.000527      0.000012      0.000000
      0.000535      0.000012      0.000000
      0.000543      0.000012      0.000000
      0.000551      0.000012      0.000000
      0.000559      0.000012      0.000000
      0.000566      0.000012      0.000000
      0.000574      0.000012      0.000000
      0.000582      0.000012      0.000000
      0.000590      0.000012      0.000000
      0.000598      0.000012      0.000000
      0.000605      0.000012      0.000000
      0.000613      0.000012      0.000000
      0.000621      0.000012      0.000000
      0.000629      0.000012      0.000000
      0.000637      0.000012      0.000000
      0.000645      0.000012      0.000000
      0.000652      0.000012      0.000000
      0.000660      0.000012      0.000000
      0.000668      0.000012      0.000000
      0.000676      0.000012      0.000000
      0.000684      0.000012      0.000000
      0.000691      0.000012      0.000000
      0.000699      0.000012      0.000000
      0.000707      0.000012      0.000000
      0.000715      0.000012      0.000000
      0.000723      0.000012      0.000000
      0.000730      0.000012      0.000000
      0.000738      0.000012      0.000000
      0.000746      0.000012      0.000000
      0.000754      0.000012      0.000000
      0.000762      0.000012      0.000000
      0.000770      0.000012      0.000000
      0.000777      0.000012      0.000000
      0.000785      0.000012      0.000000
[...]
POINT_DATA 16384
SCALARS rhoe double
LOOKUP_TABLE default
 0.914424E-013
 0.913150E-013
 0.914692E-013
 0.915626E-013
 0.916658E-013
 0.917675E-013
 0.918691E-013
 0.919705E-013
 0.920716E-013
 0.921726E-013
 0.922733E-013
 0.923738E-013
 0.924740E-013
 0.925739E-013
 0.926735E-013
 0.927728E-013
 0.928717E-013
 0.929703E-013
 0.930685E-013
 0.931662E-013
 0.932635E-013
 0.933602E-013
 0.934564E-013
 0.935520E-013
 0.936469E-013
 0.937411E-013
 0.938345E-013
 0.939271E-013
 0.940187E-013
 0.941094E-013
 0.941991E-013
 0.942876E-013
 0.943749E-013
 0.944609E-013
 0.945456E-013
 0.946287E-013
 0.947103E-013
 0.947902E-013
 0.948684E-013
 0.949446E-013
 0.950189E-013
 0.950912E-013
 0.951612E-013
 0.952290E-013
 0.952944E-013
 0.953573E-013
 0.954176E-013
 0.954752E-013
 0.955300E-013
 0.955819E-013
 0.956309E-013
 0.956767E-013
 0.957194E-013
 0.957588E-013
 0.957950E-013
 0.958277E-013
 0.958569E-013
 0.958827E-013
 0.959048E-013
 0.959233E-013
 0.959382E-013
 0.959494E-013
 0.959569E-013
 0.959606E-013
 0.959606E-013
 0.959569E-013
 0.959494E-013
 0.959382E-013
 0.959233E-013
 0.959048E-013
 0.958826E-013
 0.958569E-013
 0.958276E-013
 0.957949E-013
 0.957588E-013
 0.957193E-013
 0.956766E-013
 0.956308E-013
 0.955819E-013
 0.955299E-013
 0.954751E-013
 0.954175E-013
 0.953572E-013
 0.952943E-013
 0.952289E-013
 0.951611E-013
 0.950911E-013
 0.950188E-013
 0.949445E-013
 0.948682E-013
 0.947901E-013
 0.947101E-013
 0.946286E-013
 0.945454E-013
 0.944608E-013
 0.943748E-013
 0.942875E-013
 0.941989E-013
 0.941093E-013
 0.940186E-013
 0.939269E-013
 0.938343E-013
 0.937409E-013
 0.936467E-013
 0.935518E-013
 0.934562E-013
 0.933601E-013
 0.932633E-013
 0.931661E-013
 0.930683E-013
 0.929702E-013
 0.928716E-013
 0.927727E-013
 0.926734E-013
 0.925738E-013
 0.924738E-013
 0.923737E-013
 0.922732E-013
 0.921725E-013
 0.920716E-013
 0.919704E-013
 0.918690E-013
 0.917674E-013
 0.916658E-013
 0.915626E-013
 0.914692E-013
 0.913150E-013
 0.914424E-013
 0.913150E-013
 0.909553E-013
 0.910083E-013
 0.909647E-013
 0.909380E-013
 0.909091E-013
 0.908805E-013
 0.908519E-013
 0.908235E-013
 0.907951E-013
 0.907668E-013
 0.907386E-013
 0.907104E-013
 0.906824E-013
 0.906545E-013
 0.906266E-013
 0.905989E-013
 0.905713E-013
 0.905438E-013
 0.905165E-013
 0.904893E-013
 0.904623E-013
 0.904354E-013
 0.904087E-013
 0.903823E-013
 0.903560E-013
 0.903300E-013
 0.903042E-013
 0.902786E-013
 0.902534E-013
 0.902285E-013
 0.902039E-013
 0.901796E-013
 0.901557E-013
 0.901322E-013
 0.901092E-013
 0.900865E-013
 0.900644E-013
 0.900427E-013
 0.900216E-013
 0.900010E-013
 0.899810E-013
 0.899617E-013
 0.899429E-013
 0.899249E-013
 0.899075E-013
 0.898908E-013
 0.898749E-013
 0.898598E-013
 0.898455E-013
 0.898320E-013
 0.898194E-013
 0.898076E-013
 0.897967E-013
 0.897868E-013
 0.897778E-013
 0.897697E-013
 0.897626E-013
 0.897565E-013
 0.897514E-013
 0.897473E-013
 0.897443E-013
 0.897422E-013
 0.897412E-013
 0.897412E-013
 0.897422E-013
 0.897443E-013
 0.897473E-013
 0.897514E-013
 0.897565E-013
 0.897626E-013
 0.897697E-013
 0.897778E-013
 0.897868E-013
 0.897967E-013
 0.898076E-013
 0.898194E-013
 0.898320E-013
 0.898455E-013
 0.898598E-013
 0.898750E-013
 0.898909E-013
 0.899075E-013
 0.899249E-013
 0.899430E-013
 0.899617E-013
 0.899811E-013
 0.900011E-013
 0.900216E-013
 0.900428E-013
 0.900644E-013
 0.900866E-013
 0.901092E-013
 0.901323E-013
 0.901558E-013
 0.901796E-013
 0.902039E-013
 0.902285E-013
 0.902535E-013
 0.902787E-013
 0.903042E-013
 0.903300E-013
 0.903560E-013
 0.903823E-013
 0.904088E-013
 0.904355E-013
 0.904623E-013
 0.904893E-013
 0.905165E-013
 0.905439E-013
 0.905713E-013
 0.905989E-013
 0.906267E-013
 0.906545E-013
 0.906824E-013
 0.907105E-013
 0.907386E-013
 0.907668E-013
 0.907951E-013
 0.908235E-013
 0.908520E-013
 0.908805E-013
 0.909091E-013
 0.909380E-013
 0.909648E-013
 0.910083E-013
 0.909553E-013
 0.913150E-013
 0.914692E-013
 0.910083E-013
 0.911308E-013
 0.911152E-013
 0.911237E-013
 0.911289E-013
 0.911344E-013
 0.911399E-013
 0.911454E-013
 0.911509E-013
 0.911564E-013
 0.911618E-013
 0.911672E-013
 0.911726E-013
 0.911780E-013
 0.911833E-013
 0.911887E-013
 0.911940E-013
 0.911993E-013
 0.912045E-013
 0.912097E-013
 0.912149E-013
 0.912201E-013
 0.912252E-013
 0.912303E-013
 0.912354E-013
 0.912404E-013
 0.912453E-013
 0.912502E-013
 0.912551E-013
 0.912599E-013
 0.912646E-013
 0.912693E-013
 0.912739E-013
 0.912784E-013
 0.912828E-013
 0.912872E-013
 0.912914E-013
 0.912956E-013
 0.912997E-013
 0.913036E-013
 0.913075E-013
 0.913112E-013
 0.913148E-013
 0.913183E-013
 0.913216E-013
 0.913248E-013
 0.913279E-013
 0.913308E-013
 0.913336E-013
 0.913362E-013
 0.913386E-013
 0.913409E-013
 0.913430E-013
 0.913449E-013
 0.913466E-013
 0.913482E-013
 0.913495E-013
 0.913507E-013
 0.913517E-013
 0.913525E-013
 0.913531E-013
 0.913535E-013
 0.913537E-013
 0.913537E-013
 0.913535E-013
 0.913531E-013
 0.913525E-013
 0.913517E-013
 0.913507E-013
 0.913495E-013
 0.913482E-013
 0.913466E-013
 0.913449E-013
 0.913430E-013
 0.913409E-013
 0.913386E-013
 0.913362E-013
 0.913336E-013
 0.913308E-013
 0.913279E-013
 0.913248E-013
 0.913216E-013
 0.913183E-013
 0.913148E-013
 0.913112E-013
 0.913075E-013
 0.913036E-013
 0.912997E-013
 0.912956E-013
 0.912914E-013
 0.912872E-013
 0.912828E-013
 0.912784E-013
 0.912739E-013
 0.912693E-013
 0.912646E-013
 0.912599E-013
 0.912551E-013
 0.912502E-013
 0.912453E-013
 0.912404E-013
 0.912354E-013
 0.912303E-013
 0.912252E-013
 0.912201E-013
 0.912149E-013
 0.912097E-013
 0.912045E-013
 0.911993E-013
 0.911940E-013
 0.911887E-013
 0.911833E-013
 0.911780E-013
 0.911726E-013
 0.911672E-013
 0.911618E-013
 0.911563E-013
 0.911509E-013
 0.911454E-013
 0.911399E-013
 0.911344E-013
 0.911289E-013
 0.911237E-013
 0.911152E-013
 0.911308E-013
 0.910083E-013
 0.914692E-013
 0.915626E-013
 0.909647E-013
 0.911152E-013
 0.910869E-013
 0.910900E-013
 0.910887E-013
 0.910879E-013
 0.910871E-013
 0.910863E-013
 0.910855E-013
 0.910847E-013
 0.910840E-013
 0.910832E-013
 0.910824E-013
 0.910816E-013
 0.910808E-013
 0.910800E-013
 0.910793E-013
 0.910785E-013
 0.910777E-013
 0.910770E-013
 0.910762E-013
 0.910755E-013
 0.910748E-013
 0.910740E-013
 0.910733E-013
 0.910726E-013
 0.910719E-013
 0.910712E-013
 0.910705E-013
 0.910698E-013
 0.910691E-013
 0.910685E-013
 0.910678E-013
 0.910672E-013
 0.910665E-013
 0.910659E-013
 0.910653E-013
 0.910648E-013
 0.910642E-013
 0.910636E-013
 0.910631E-013
 0.910626E-013
 0.910621E-013
 0.910616E-013
 0.910612E-013
 0.910607E-013
 0.910603E-013
 0.910599E-013
 0.910595E-013
 0.910592E-013
 0.910589E-013
 0.910585E-013
 0.910583E-013
 0.910580E-013
 0.910578E-013
 0.910576E-013
 0.910574E-013
 0.910572E-013
 0.910571E-013
 0.910570E-013
 0.910569E-013
 0.910569E-013
 0.910568E-013
 0.910568E-013
 0.910569E-013
 0.910569E-013
 0.910570E-013
 0.910571E-013
 0.910572E-013
 0.910574E-013
 0.910576E-013
 0.910578E-013
 0.910580E-013
 0.910583E-013
 0.910586E-013
 0.910589E-013
 0.910592E-013
 0.910595E-013
 0.910599E-013
 0.910603E-013
 0.910607E-013
 0.910612E-013
 0.910616E-013
 0.910621E-013
 0.910626E-013
 0.910631E-013
 0.910636E-013
 0.910642E-013
 0.910648E-013
 0.910653E-013
 0.910659E-013
 0.910666E-013
 0.910672E-013
 0.910678E-013
 0.910685E-013
 0.910691E-013
 0.910698E-013
 0.910705E-013
 0.910712E-013
 0.910719E-013
 0.910726E-013
 0.910733E-013
 0.910740E-013
 0.910748E-013
 0.910755E-013
 0.910762E-013
 0.910770E-013
 0.910778E-013
 0.910785E-013
 0.910793E-013
 0.910801E-013
 0.910808E-013
 0.910816E-013
 0.910824E-013
 0.910832E-013
 0.910840E-013
 0.910848E-013
 0.910855E-013
 0.910863E-013
 0.910871E-013
 0.910880E-013
 0.910887E-013
 0.910900E-013
 0.910869E-013
 0.911152E-013
 0.909648E-013
 0.915626E-013
 0.916658E-013
 0.909380E-013
 0.911237E-013
 0.910900E-013
 0.910948E-013
 0.910944E-013
 0.910945E-013
 0.910946E-013
 0.910947E-013
 0.910948E-013
 0.910949E-013
 0.910950E-013
 0.910951E-013
 0.910952E-013
 0.910953E-013
 0.910954E-013
 0.910955E-013
 0.910955E-013
 0.910956E-013
 0.910957E-013
 0.910958E-013
 0.910959E-013
 0.910960E-013
 0.910961E-013
 0.910962E-013
 0.910963E-013
 0.910964E-013
 0.910965E-013
 0.910966E-013
 0.910967E-013
 0.910968E-013
 0.910969E-013
 0.910970E-013
 0.910971E-013
 0.910972E-013
 0.910973E-013
 0.910974E-013
 0.910974E-013
 0.910975E-013
 0.910976E-013
 0.910977E-013
 0.910978E-013
 0.910979E-013
 0.910980E-013
 0.910981E-013
 0.910982E-013
 0.910982E-013
 0.910983E-013
 0.910984E-013
 0.910985E-013
 0.910986E-013
 0.910986E-013
 0.910987E-013
 0.910987E-013
 0.910988E-013
 0.910988E-013
 0.910989E-013
 0.910989E-013
 0.910990E-013
 0.910990E-013
 0.910990E-013
 0.910990E-013
 0.910991E-013
 0.910991E-013
 0.910991E-013
 0.910991E-013
 0.910990E-013
 0.910990E-013
 0.910990E-013
 0.910990E-013
 0.910989E-013
 0.910989E-013
 0.910988E-013
 0.910988E-013
 0.910987E-013
 0.910987E-013
 0.910986E-013
 0.910986E-013
 0.910985E-013
 0.910984E-013
 0.910983E-013
 0.910983E-013
 0.910982E-013
 0.910981E-013
 0.910980E-013
 0.910979E-013
 0.910978E-013
 0.910977E-013
 0.910976E-013
 0.910975E-013
 0.910974E-013
 0.910974E-013
 0.910973E-013
 0.910972E-013
 0.910971E-013
 0.910970E-013
 0.910969E-013
 0.910968E-013
 0.910967E-013
 0.910966E-013
 0.910965E-013
 0.910964E-013
 0.910963E-013
 0.910962E-013
 0.910961E-013
 0.910960E-013
 0.910959E-013
 0.910958E-013
 0.910957E-013
 0.910956E-013
 0.910956E-013
 0.910955E-013
 0.910954E-013
 0.910953E-013
 0.910952E-013
 0.910951E-013
 0.910950E-013
 0.910949E-013
 0.910948E-013
 0.910947E-013
 0.910946E-013
 0.910945E-013
 0.910944E-013
 0.910948E-013
 0.910900E-013
 0.911237E-013
 0.909380E-013
 0.916658E-013
 0.917675E-013
 0.909091E-013
 0.911289E-013
 0.910887E-013
 0.910944E-013
 0.910937E-013
 0.910938E-013
 0.910938E-013
 0.910937E-013
 0.910937E-013
 0.910937E-013
 0.910937E-013
 0.910937E-013
 0.910937E-013
 0.910937E-013
 0.910937E-013
 0.910937E-013
 0.910937E-013
 0.910937E-013
 0.910937E-013
 0.910937E-013
 0.910937E-013
 0.910937E-013
 0.910937E-013
 0.910937E-013
 0.910937E-013
 0.910937E-013
 0.910937E-013
 0.910937E-013
 0.910937E-013
 0.910937E-013
 0.910937E-013
 0.910937E-013
 0.910937E-013
 0.910938E-013
 0.910938E-013
 0.910938E-013
 0.910938E-013
 0.910938E-013
 0.910938E-013
 0.910939E-013
 0.910939E-013
 0.910939E-013
 0.910940E-013
 0.910940E-013
 0.910940E-013
 0.910940E-013
 0.910941E-013
 0.910941E-013
 0.910941E-013
 0.910942E-013
 0.910942E-013
 0.910942E-013
 0.910942E-013
 0.910943E-013
 0.910943E-013
 0.910943E-013
 0.910943E-013
 0.910943E-013
 0.910943E-013
 0.910944E-013
 0.910944E-013
 0.910944E-013
 0.910944E-013
 0.910944E-013
 0.910944E-013
 0.910944E-013
 0.910944E-013
 0.910943E-013
 0.910943E-013
 0.910943E-013
 0.910943E-013
 0.910943E-013
 0.910943E-013
 0.910942E-013
 0.910942E-013
 0.910942E-013
 0.910942E-013
 0.910941E-013
 0.910941E-013
 0.910941E-013
 0.910940E-013
 0.910940E-013
 0.910940E-013
 0.910940E-013
 0.910939E-013
 0.910939E-013
 0.910939E-013
 0.910939E-013
 0.910938E-013
 0.910938E-013
 0.910938E-013
 0.910938E-013
 0.910938E-013
 0.910937E-013
 0.910937E-013
 0.910937E-013
 0.910937E-013
 0.910937E-013
 0.910937E-013
 0.910937E-013
 0.910937E-013
 0.910937E-013
 0.910937E-013
 0.910937E-013
 0.910937E-013
 0.910937E-013
 0.910937E-013
 0.910937E-013
 0.910937E-013
 0.910937E-013
 0.910937E-013
 0.910937E-013
 0.910937E-013
 0.910937E-013
 0.910937E-013
 0.910937E-013
 0.910937E-013
 0.910937E-013
 0.910937E-013
 0.910938E-013
 0.910938E-013
 0.910937E-013
 0.910944E-013
 0.910887E-013
 0.911289E-013
 0.909091E-013
 0.917674E-013
 0.918691E-013
 0.908805E-013
 0.911344E-013
 0.910879E-013
 0.910945E-013
 0.910938E-013
 0.910938E-013
 0.910938E-013
 0.910938E-013
 0.910938E-013
 0.910938E-013
 0.910938E-013
 0.910938E-013
 0.910938E-013
 0.910939E-013
 0.910939E-013
 0.910939E-013
 0.910939E-013
 0.910939E-013
 0.910939E-013
 0.910939E-013
 0.910939E-013
 0.910939E-013
 0.910939E-013
 0.910939E-013
 0.910939E-013
 0.910940E-013
 0.910940E-013
 0.910940E-013
 0.910940E-013
 0.910940E-013
 0.910941E-013
 0.910941E-013
 0.910941E-013
 0.910941E-013
 0.910942E-013
 0.910942E-013
 0.910942E-013
 0.910943E-013
 0.910943E-013
 0.910943E-013
 0.910944E-013
 0.910944E-013
 0.910945E-013
 0.910945E-013
 0.910945E-013
 0.910946E-013
 0.910946E-013
 0.910947E-013
 0.910947E-013
 0.910947E-013
 0.910948E-013
 0.910948E-013
 0.910948E-013
 0.910949E-013
 0.910949E-013
 0.910949E-013
 0.910950E-013
 0.910950E-013
 0.910950E-013
 0.910950E-013
 0.910950E-013
 0.910950E-013
 0.910950E-013
 0.910950E-013
 0.910950E-013
 0.910950E-013
 0.910950E-013
 0.910950E-013
 0.910950E-013
 0.910950E-013
 0.910949E-013
 0.910949E-013
 0.910949E-013
 0.910948E-013
 0.910948E-013
 0.910948E-013
 0.910947E-013
 0.910947E-013
 0.910947E-013
 0.910946E-013
 0.910946E-013
 0.910945E-013
 0.910945E-013
 0.910945E-013
 0.910944E-013
 0.910944E-013
 0.910943E-013
 0.910943E-013
 0.910943E-013
 0.910942E-013
 0.910942E-013
 0.910942E-013
 0.910941E-013
 0.910941E-013
 0.910941E-013
 0.910941E-013
 0.910940E-013
 0.910940E-013
 0.910940E-013
 0.910940E-013
 0.910940E-013
 0.910939E-013
 0.910939E-013
 0.910939E-013
 0.910939E-013
 0.910939E-013
 0.910939E-013
 0.910939E-013
 0.910939E-013
 0.910939E-013
 0.910939E-013
 0.910939E-013
 0.910939E-013
 0.910939E-013
 0.910938E-013
 0.910938E-013
 0.910938E-013
 0.910938E-013
 0.910938E-013
 0.910938E-013
 0.910938E-013
 0.910938E-013
 0.910945E-013
 0.910880E-013
 0.911345E-013
 0.908805E-013
 0.918690E-013
 0.919705E-013
 0.908519E-013
 0.911399E-013
 0.910871E-013
 0.910946E-013
 0.910938E-013
 0.910938E-013
 0.910938E-013
 0.910938E-013
 0.910938E-013
 0.910938E-013
 0.910938E-013
 0.910938E-013
 0.910938E-013
 0.910938E-013
 0.910938E-013
 0.910938E-013
 0.910939E-013
 0.910939E-013
 0.910939E-013
 0.910939E-013
 0.910939E-013
 0.910939E-013
 0.910939E-013
 0.910939E-013
 0.910939E-013
 0.910940E-013
 0.910940E-013
 0.910940E-013
 0.910940E-013
 0.910940E-013
 0.910941E-013
 0.910941E-013
 0.910941E-013
 0.910942E-013
 0.910942E-013
 0.910942E-013
 0.910943E-013
 0.910943E-013
 0.910944E-013
 0.910944E-013
 0.910944E-013
 0.910945E-013
 0.910945E-013
 0.910946E-013
 0.910946E-013
 0.910947E-013
 0.910947E-013
 0.910948E-013
 0.910948E-013
 0.910949E-013
 0.910949E-013
 0.910950E-013
 0.910950E-013
 0.910950E-013
 0.910951E-013
 0.910951E-013
 0.910951E-013
 0.910952E-013
 0.910952E-013
 0.910952E-013
 0.910952E-013
 0.910952E-013
 0.910952E-013
 0.910952E-013
 0.910952E-013
 0.910952E-013
 0.910952E-013
 0.910952E-013
 0.910952E-013
 0.910951E-013
 0.910951E-013
 0.910951E-013
 0.910950E-013
 0.910950E-013
 0.910950E-013
 0.910949E-013
 0.910949E-013
 0.910948E-013
 0.910948E-013
 0.910947E-013
 0.910947E-013
 0.910946E-013
 0.910946E-013
 0.910945E-013
 0.910945E-013
 0.910944E-013
 0.910944E-013
 0.910944E-013
 0.910943E-013
 0.910943E-013
 0.910942E-013
 0.910942E-013
 0.910942E-013
 0.910941E-013
 0.910941E-013
 0.910941E-013
 0.910940E-013
 0.910940E-013
 0.910940E-013
 0.910940E-013
 0.910940E-013
 0.910939E-013
 0.910939E-013
 0.910939E-013
 0.910939E-013
 0.910939E-013
 0.910939E-013
 0.910939E-013
 0.910939E-013
 0.910939E-013
 0.910939E-013
 0.910939E-013
 0.910938E-013
 0.910938E-013
 0.910938E-013
 0.910938E-013
 0.910938E-013
 0.910938E-013
 0.910938E-013
 0.910938E-013
 0.910938E-013
 0.910938E-013
 0.910946E-013
 0.910871E-013
 0.911399E-013
 0.908520E-013
 0.919704E-013
 0.920716E-013
 0.908235E-013
 0.911454E-013
 0.910863E-013
 0.910947E-013
 0.910937E-013
 0.910938E-013
 0.910938E-013
 0.910938E-013
 0.910938E-013
 0.910938E-013
 0.910938E-013
 0.910938E-013
 0.910938E-013
 0.910938E-013
 0.910939E-013
 0.910939E-013
 0.910939E-013
 0.910939E-013
 0.910939E-013
 0.910939E-013
 0.910939E-013
 0.910939E-013
 0.910939E-013
 0.910939E-013
 0.910940E-013
 0.910940E-013
 0.910940E-013
 0.910940E-013
 0.910941E-013
 0.910941E-013
 0.910941E-013
 0.910942E-013
 0.910942E-013
 0.910942E-013
 0.910943E-013
 0.910943E-013
 0.910944E-013
 0.910944E-013
 0.910945E-013
 0.910945E-013
 0.910946E-013
 0.910946E-013
 0.910947E-013
 0.910947E-013
 0.910948E-013
 0.910948E-013
 0.910949E-013
 0.910950E-013
 0.910950E-013
 0.910951E-013
 0.910951E-013
 0.910952E-013
 0.910952E-013
 0.910953E-013
 0.910953E-013
 0.910954E-013
 0.910954E-013
 0.910954E-013
 0.910954E-013
 0.910955E-013
 0.910955E-013
 0.910955E-013
 0.910955E-013
 0.910955E-013
 0.910955E-013
 0.910955E-013
 0.910955E-013
 0.910954E-013
 0.910954E-013
 0.910954E-013
 0.910954E-013
 0.910953E-013
 0.910953E-013
 0.910952E-013
 0.910952E-013
 0.910951E-013
 0.910951E-013
 0.910950E-013
 0.910950E-013
 0.910949E-013
 0.910948E-013
 0.910948E-013
 0.910947E-013
 0.910947E-013
 0.910946E-013
 0.910946E-013
 0.910945E-013
 0.910945E-013
 0.910944E-013
 0.910944E-013
 0.910943E-013
 0.910943E-013
 0.910942E-013
 0.910942E-013
 0.910942E-013
 0.910941E-013
 0.910941E-013
 0.910941E-013
 0.910940E-013
 0.910940E-013
 0.910940E-013
 0.910940E-013
 0.910940E-013
 0.910939E-013
 0.910939E-013
 0.910939E-013
 0.910939E-013
 0.910939E-013
 0.910939E-013
 0.910939E-013
 0.910939E-013
 0.910939E-013
 0.910939E-013
 0.910938E-013
 0.910938E-013
 0.910938E-013
 0.910938E-013
 0.910938E-013
 0.910938E-013
 0.910938E-013
 0.910938E-013
 0.910938E-013
 0.910947E-013
 0.910863E-013
 0.911454E-013
 0.908235E-013
 0.920716E-013
 0.921726E-013
 0.907951E-013
 0.911509E-013
 0.910855E-013
 0.910948E-013
 0.910937E-013
 0.910938E-013
 0.910938E-013
 0.910938E-013
 0.910938E-013
 0.910938E-013
 0.910938E-013
 0.910938E-013
 0.910938E-013
 0.910939E-013
 0.910939E-013
 0.910939E-013
 0.910939E-013
 0.910939E-013
 0.910939E-013
 0.910939E-013
 0.910939E-013
 0.910939E-013
 0.910940E-013
 0.910940E-013
 0.910940E-013
 0.910940E-013
 0.910940E-013
 0.910941E-013
 0.910941E-013
 0.910941E-013
 0.910942E-013
 0.910942E-013
 0.910943E-013
 0.910943E-013
 0.910944E-013
 0.910944E-013
 0.910945E-013
 0.910945E-013
 0.910946E-013
 0.910946E-013
 0.910947E-013
 0.910948E-013
 0.910948E-013
 0.910949E-013
 0.910950E-013
 0.910950E-013
 0.910951E-013
 0.910952E-013
 0.910952E-013
 0.910953E-013
 0.910954E-013
 0.910954E-013
 0.910955E-013
 0.910955E-013
 0.910956E-013
 0.910956E-013
 0.910957E-013
 0.910957E-013
 0.910957E-013
 0.910958E-013
 0.910958E-013
 0.910958E-013
 0.910958E-013
 0.910958E-013
 0.910958E-013
 0.910958E-013
 0.910958E-013
 0.910957E-013
 0.910957E-013
 0.910957E-013
 0.910956E-013
 0.910956E-013
 0.910955E-013
 0.910955E-013
 0.910954E-013
 0.910954E-013
 0.910953E-013
 0.910952E-013
 0.910952E-013
 0.910951E-013
 0.910950E-013
 0.910950E-013
 0.910949E-013
 0.910948E-013
 0.910948E-013
 0.910947E-013
 0.910946E-013
 0.910946E-013
 0.910945E-013
 0.910945E-013
 0.910944E-013
 0.910944E-013
 0.910943E-013
 0.910943E-013
 0.910942E-013
 0.910942E-013
 0.910941E-013
 0.910941E-013
 0.910941E-013
 0.910941E-013
 0.910940E-013
 0.910940E-013
 0.910940E-013
 0.910940E-013
 0.910939E-013
 0.910939E-013
 0.910939E-013
 0.910939E-013
 0.910939E-013
 0.910939E-013
 0.910939E-013
 0.910939E-013
 0.910939E-013
 0.910939E-013
 0.910938E-013
 0.910938E-013
 0.910938E-013
 0.910938E-013
 0.910938E-013
 0.910938E-013
 0.910938E-013
 0.910937E-013
 0.910948E-013
 0.910856E-013
 0.911509E-013
 0.907951E-013
 0.921725E-013
 0.922733E-013
 0.907668E-013
 0.911564E-013
 0.910847E-013
 0.910949E-013
 0.910937E-013
 0.910938E-013
 0.910938E-013
 0.910938E-013
 0.910938E-013
 0.910938E-013
 0.910938E-013
 0.910938E-013
 0.910939E-013
 0.910939E-013
 0.910939E-013
 0.910939E-013
 0.910939E-013
 0.910939E-013
 0.910939E-013
 0.910939E-013
 0.910939E-013
 0.910940E-013
 0.910940E-013
 0.910940E-013
 0.910940E-013
 0.910941E-013
 0.910941E-013
 0.910941E-013
 0.910942E-013
 0.910942E-013
 0.910942E-013
 0.910943E-013
 0.910943E-013
 0.910944E-013
 0.910945E-013
 0.910945E-013
 0.910946E-013
 0.910946E-013
 0.910947E-013
 0.910948E-013
 0.910949E-013
 0.910949E-013
 0.910950E-013
 0.910951E-013
 0.910952E-013
 0.910953E-013
 0.910953E-013
 0.910954E-013