# vtk DataFile Version 3.0
Solution data
ASCII
DATASET STRUCTURED_GRID
DIMENSIONS 128 128 1
POINTS 16384  double
      0.000004      0.000004      0.000000
      0.000012      0.000004      0.000000
      0.000020      0.000004      0.000000
      0.000027      0.000004      0.000000
      0.000035      0.000004      0.000000
      0.000043      0.000004      0.000000
      0.000051      0.000004      0.000000
      0.000059      0.000004      0.000000
      0.000066      0.000004      0.000000
      0.000074      0.000004      0.000000
      0.000082      0.000004      0.000000
      0.000090      0.000004      0.000000
      0.000098      0.000004      0.000000
      0.000105      0.000004      0.000000
      0.000113      0.000004      0.000000
      0.000121      0.000004      0.000000
      0.000129      0.000004      0.000000
      0.000137      0.000004      0.000000
      0.000145      0.000004      0.000000
      0.000152      0.000004      0.000000
      0.000160      0.000004      0.000000
      0.000168      0.000004      0.000000
      0.000176      0.000004      0.000000
      0.000184      0.000004      0.000000
      0.000191      0.000004      0.000000
      0.000199      0.000004      0.000000
      0.000207      0.000004      0.000000
      0.000215      0.000004      0.000000
      0.000223      0.000004      0.000000
      0.000230      0.000004      0.000000
      0.000238      0.000004      0.000000
      0.000246      0.000004      0.000000
      0.000254      0.000004      0.000000
      0.000262      0.000004      0.000000
      0.000270      0.000004      0.000000
      0.000277      0.000004      0.000000
      0.000285      0.000004      0.000000
      0.000293      0.000004      0.000000
      0.000301      0.000004      0.000000
      0.000309      0.000004      0.000000
      0.000316      0.000004      0.000000
      0.000324      0.000004      0.000000
      0.000332      0.000004      0.000000
      0.000340      0.000004      0.000000
      0.000348      0.000004      0.000000
      0.000355      0.000004      0.000000
      0.000363      0.000004      0.000000
      0.000371      0.000004      0.000000
      0.000379      0.000004      0.000000
      0.000387      0.000004      0.000000
      0.000395      0.000004      0.000000
      0.000402      0.000004      0.000000
      0.000410      0.000004      0.000000
      0.000418      0.000004      0.000000
      0.000426      0.000004      0.000000
      0.000434      0.000004      0.000000
      0.000441      0.000004      0.000000
      0.000449      0.000004      0.000000
      0.000457      0.000004      0.000000
      0.000465      0.000004      0.000000
      0.000473      0.000004      0.000000
      0.000480      0.000004      0.000000
      0.000488      0.000004      0.000000
      0.000496      0.000004      0.000000
      0.000504      0.000004      0.000000
      0.000512      0.000004      0.000000
      0.000520      0.000004      0.000000
      0.000527      0.000004      0.000000
      0.000535      0.000004      0.000000
      0.000543      0.000004      0.000000
      0.000551      0.000004      0.000000
      0.000559      0.000004      0.000000
      0.000566      0.000004      0.000000
      0.000574      0.000004      0.000000
      0.000582      0.000004      0.000000
      0.000590      0.000004      0.000000
      0.000598      0.000004      0.000000
      0.000605      0.000004      0.000000
      0.000613      0.000004      0.000000
      0.000621      0.000004      0.000000
      0.000629      0.000004      0.000000
      0.000637      0.000004      0.000000
      0.000645      0.000004      0.000000
      0.000652      0.000004      0.000000
      0.000660      0.000004      0.000000
      0.000668      0.000004      0.000000
      0.000676      0.000004      0.000000
      0.000684      0.000004      0.000000
      0.000691      0.000004      0.000000
      0.000699      0.000004      0.000000
      0.000707      0.000004      0.000000
      0.000715      0.000004      0.000000
      0.000723      0.000004      0.000000
      0.000730      0.000004      0.000000
      0.000738      0.000004      0.000000
      0.000746      0.000004      0.000000
      0.000754      0.000004      0.000000
      0.000762      0.000004      0.000000
      0.000770      0.000004      0.000000
      0.000777      0.000004      0.000000
      0.000785      0.000004      0.000000
      0.000793      0.000004      0.000000
      0.000801      0.000004      0.000000
      0.000809      0.000004      0.000000
      0.000816      0.000004      0.000000
      0.000824      0.000004      0.000000
      0.000832      0.000004      0.000000
      0.000840      0.000004      0.000000
      0.000848      0.000004      0.000000
      0.000855      0.000004      0.000000
      0.000863      0.000004      0.000000
      0.000871      0.000004      0.000000
      0.000879      0.000004      0.000000
      0.000887      0.000004      0.000000
      0.000895      0.000004      0.000000
      0.000902      0.000004      0.000000
      0.000910      0.000004      0.000000
      0.000918      0.000004      0.000000
      0.000926      0.000004      0.000000
      0.000934      0.000004      0.000000
      0.000941      0.000004      0.000000
      0.000949      0.000004      0.000000
      0.000957      0.000004      0.000000
      0.000965      0.000004      0.000000
      0.000973      0.000004      0.000000
      0.000980      0.000004      0.000000
      0.000988      0.000004      0.000000
      0.000996      0.000004      0.000000
      0.000004      0.000012      0.000000
      0.000012      0.000012      0.000000
      0.000020      0.000012      0.000000
      0.000027      0.000012      0.000000
      0.000035      0.000012      0.000000
      0.000043      0.000012      0.000000
      0.000051      0.000012      0.000000
      0.000059      0.000012      0.000000
      0.000066      0.000012      0.000000
      0.000074      0.000012      0.000000
      0.000082      0.000012      0.000000
      0.000090      0.000012      0.000000
      0.000098      0.000012      0.000000
      0.000105      0.000012      0.000000
      0.000113      0.000012      0.000000
      0.000121      0.000012      0.000000
      0.000129      0.000012      0.000000
      0.000137      0.000012      0.000000
      0.000145      0.000012      0.000000
      0.000152      0.000012      0.000000
      0.000160      0.000012      0.000000
      0.000168      0.000012      0.000000
      0.000176      0.000012      0.000000
      0.000184      0.000012      0.000000
      0.000191      0.000012      0.000000
      0.000199      0.000012      0.000000
      0.000207      0.000012      0.000000
      0.000215      0.000012      0.000000
      0.000223      0.000012      0.000000
      0.000230      0.000012      0.000000
      0.000238      0.000012      0.000000
      0.000246      0.000012      0.000000
      0.000254      0.000012      0.000000
      0.000262      0.000012      0.000000
      0.000270      0.000012      0.000000
      0.000277      0.000012      0.000000
      0.000285      0.000012      0.000000
      0.000293      0.000012      0.000000
      0.000301      0.000012      0.000000
      0.000309      0.000012      0.000000
      0.000316      0.000012      0.000000
      0.000324      0.000012      0.000000
      0.000332      0.000012      0.000000
      0.000340      0.000012      0.000000
      0.000348      0.000012      0.000000
      0.000355      0.000012      0.000000
      0.000363      0.000012      0.000000
      0.000371      0.000012      0.000000
      0.000379      0.000012      0.000000
      0.000387      0.000012      0.000000
      0.000395      0.000012      0.000000
      0.000402      0.000012      0.000000
      0.000410      0.000012      0.000000
      0.000418      0.000012      0.000000
      0.000426      0.000012      0.000000
      0.000434      0.000012      0.000000
      0.000441      0.000012      0.000000
      0.000449      0.000012      0.000000
      0.000457      0.000012      0.000000
      0.000465      0.000012      0.000000
      0.000473      0.000012      0.000000
      0.000480      0.000012      0.000000
      0.000488      0.000012      0.000000
      0.000496      0.000012      0.000000
      0.000504      0.000012      0.000000
      0.000512      0.000012      0.000000
      0.000520      0.000012      0.000000
      0.000527      0.000012      0.000000
      0.000535      0.000012      0.000000
      0.000543      0.000012      0.000000
      0.000551      0.000012      0.000000
      0.000559      0.000012      0.000000
      0.000566      0.000012      0.000000
      0.000574      0.000012      0.000000
      0.000582      0.000012      0.000000
      0.000590      0.000012      0.000000
      0.000598      0.000012      0.000000
      0.000605      0.000012      0.000000
      0.000613      0.000012      0.000000
      0.000621      0.000012      0.000000
      0.000629      0.000012      0.000000
      0.000637      0.000012      0.000000
      0.000645      0.000012      0.000000
      0.000652      0.000012      0.000000
      0.000660      0.000012      0.000000
      0.000668      0.000012      0.000000
      0.000676      0.000012      0.000000
      0.000684      0.000012      0.000000
      0.000691      0.000012      0.000000
      0.000699      0.000012      0.000000
      0.000707      0.000012      0.000000
      0.000715      0.000012      0.000000
      0.000723      0.000012      0.000000
      0.000730      0.000012      0.000000
      0.000738      0.000012      0.000000
      0.000746      0.000012      0.000000
      0.000754      0.000012      0.000000
      0.000762      0.000012      0.000000
      0.000770      0.000012      0.000000
      0.000777      0.000012      0.000000
      0.000785      0.000012      0.000000
[...]
POINT_DATA 16384
SCALARS rhoe double
LOOKUP_TABLE default
 0.916016E-013
 0.912761E-013
 0.915324E-013
 0.915745E-013
 0.916820E-013
 0.917722E-013
 0.918659E-013
 0.919587E-013
 0.920513E-013
 0.921436E-013
 0.922357E-013
 0.923275E-013
 0.924190E-013
 0.925101E-013
 0.926009E-013
 0.926913E-013
 0.927814E-013
 0.928710E-013
 0.929602E-013
 0.930489E-013
 0.931372E-013
 0.932248E-013
 0.933119E-013
 0.933984E-013
 0.934842E-013
 0.935693E-013
 0.936536E-013
 0.937371E-013
 0.938196E-013
 0.939013E-013
 0.939819E-013
 0.940614E-013
 0.941398E-013
 0.942169E-013
 0.942927E-013
 0.943672E-013
 0.944402E-013
 0.945116E-013
 0.945814E-013
 0.946494E-013
 0.947157E-013
 0.947801E-013
 0.948424E-013
 0.949027E-013
 0.949609E-013
 0.950167E-013
 0.950703E-013
 0.951214E-013
 0.951700E-013
 0.952160E-013
 0.952593E-013
 0.952999E-013
 0.953377E-013
 0.953726E-013
 0.954045E-013
 0.954334E-013
 0.954593E-013
 0.954820E-013
 0.955016E-013
 0.955179E-013
 0.955310E-013
 0.955409E-013
 0.955475E-013
 0.955508E-013
 0.955508E-013
 0.955475E-013
 0.955409E-013
 0.955311E-013
 0.955179E-013
 0.955016E-013
 0.954820E-013
 0.954593E-013
 0.954334E-013
 0.954045E-013
 0.953726E-013
 0.953377E-013
 0.952999E-013
 0.952593E-013
 0.952160E-013
 0.951700E-013
 0.951214E-013
 0.950703E-013
 0.950168E-013
 0.949609E-013
 0.949027E-013
 0.948424E-013
 0.947801E-013
 0.947157E-013
 0.946495E-013
 0.945814E-013
 0.945116E-013
 0.944402E-013
 0.943672E-013
 0.942927E-013
 0.942169E-013
 0.941398E-013
 0.940614E-013
 0.939819E-013
 0.939013E-013
 0.938196E-013
 0.937371E-013
 0.936536E-013
 0.935693E-013
 0.934842E-013
 0.933984E-013
 0.933119E-013
 0.932248E-013
 0.931372E-013
 0.930489E-013
 0.929602E-013
 0.928710E-013
 0.927814E-013
 0.926913E-013
 0.926009E-013
 0.925101E-013
 0.924190E-013
 0.923275E-013
 0.922357E-013
 0.921436E-013
 0.920513E-013
 0.919587E-013
 0.918659E-013
 0.917722E-013
 0.916820E-013
 0.915745E-013
 0.915324E-013
 0.912761E-013
 0.916016E-013
 0.912761E-013
 0.908093E-013
 0.909497E-013
 0.908312E-013
 0.908003E-013
 0.907452E-013
 0.906960E-013
 0.906457E-013
 0.905959E-013
 0.905461E-013
 0.904965E-013
 0.904470E-013
 0.903977E-013
 0.903486E-013
 0.902996E-013
 0.902509E-013
 0.902024E-013
 0.901541E-013
 0.901060E-013
 0.900582E-013
 0.900107E-013
 0.899634E-013
 0.899165E-013
 0.898699E-013
 0.898237E-013
 0.897778E-013
 0.897324E-013
 0.896874E-013
 0.896429E-013
 0.895989E-013
 0.895555E-013
 0.895126E-013
 0.894704E-013
 0.894288E-013
 0.893879E-013
 0.893478E-013
 0.893084E-013
 0.892699E-013
 0.892323E-013
 0.891956E-013
 0.891598E-013
 0.891251E-013
 0.890915E-013
 0.890590E-013
 0.890276E-013
 0.889975E-013
 0.889686E-013
 0.889410E-013
 0.889148E-013
 0.888900E-013
 0.888666E-013
 0.888447E-013
 0.888243E-013
 0.888055E-013
 0.887883E-013
 0.887727E-013
 0.887587E-013
 0.887464E-013
 0.887359E-013
 0.887271E-013
 0.887200E-013
 0.887146E-013
 0.887111E-013
 0.887093E-013
 0.887093E-013
 0.887111E-013
 0.887146E-013
 0.887200E-013
 0.887271E-013
 0.887359E-013
 0.887465E-013
 0.887587E-013
 0.887727E-013
 0.887883E-013
 0.888055E-013
 0.888243E-013
 0.888447E-013
 0.888666E-013
 0.888900E-013
 0.889148E-013
 0.889410E-013
 0.889686E-013
 0.889975E-013
 0.890276E-013
 0.890590E-013
 0.890915E-013
 0.891252E-013
 0.891599E-013
 0.891956E-013
 0.892323E-013
 0.892699E-013
 0.893085E-013
 0.893478E-013
 0.893879E-013
 0.894288E-013
 0.894704E-013
 0.895126E-013
 0.895555E-013
 0.895990E-013
 0.896430E-013
 0.896875E-013
 0.897324E-013
 0.897779E-013
 0.898237E-013
 0.898699E-013
 0.899165E-013
 0.899635E-013
 0.900107E-013
 0.900582E-013
 0.901061E-013
 0.901541E-013
 0.902024E-013
 0.902509E-013
 0.902997E-013
 0.903486E-013
 0.903977E-013
 0.904470E-013
 0.904965E-013
 0.905461E-013
 0.905959E-013
 0.906458E-013
 0.906960E-013
 0.907452E-013
 0.908003E-013
 0.908312E-013
 0.909497E-013
 0.908093E-013
 0.912761E-013
 0.915324E-013
 0.909497E-013
 0.912421E-013
 0.911656E-013
 0.912135E-013
 0.912267E-013
 0.912481E-013
 0.912677E-013
 0.912875E-013
 0.913073E-013
 0.913270E-013
 0.913466E-013
 0.913662E-013
 0.913857E-013
 0.914051E-013
 0.914245E-013
 0.914437E-013
 0.914629E-013
 0.914819E-013
 0.915009E-013
 0.915197E-013
 0.915385E-013
 0.915571E-013
 0.915756E-013
 0.915939E-013
 0.916121E-013
 0.916301E-013
 0.916479E-013
 0.916656E-013
 0.916830E-013
 0.917002E-013
 0.917172E-013
 0.917339E-013
 0.917504E-013
 0.917666E-013
 0.917825E-013
 0.917981E-013
 0.918134E-013
 0.918283E-013
 0.918428E-013
 0.918570E-013
 0.918708E-013
 0.918841E-013
 0.918970E-013
 0.919094E-013
 0.919213E-013
 0.919328E-013
 0.919437E-013
 0.919541E-013
 0.919639E-013
 0.919732E-013
 0.919819E-013
 0.919899E-013
 0.919974E-013
 0.920042E-013
 0.920104E-013
 0.920159E-013
 0.920208E-013
 0.920250E-013
 0.920285E-013
 0.920313E-013
 0.920334E-013
 0.920348E-013
 0.920355E-013
 0.920355E-013
 0.920348E-013
 0.920334E-013
 0.920313E-013
 0.920285E-013
 0.920250E-013
 0.920208E-013
 0.920159E-013
 0.920104E-013
 0.920042E-013
 0.919974E-013
 0.919899E-013
 0.919819E-013
 0.919732E-013
 0.919639E-013
 0.919541E-013
 0.919437E-013
 0.919328E-013
 0.919213E-013
 0.919094E-013
 0.918970E-013
 0.918841E-013
 0.918707E-013
 0.918570E-013
 0.918428E-013
 0.918283E-013
 0.918134E-013
 0.917981E-013
 0.917825E-013
 0.917666E-013
 0.917504E-013
 0.917339E-013
 0.917172E-013
 0.917002E-013
 0.916830E-013
 0.916655E-013
 0.916479E-013
 0.916301E-013
 0.916121E-013
 0.915939E-013
 0.915755E-013
 0.915571E-013
 0.915385E-013
 0.915197E-013
 0.915009E-013
 0.914819E-013
 0.914628E-013
 0.914437E-013
 0.914244E-013
 0.914051E-013
 0.913857E-013
 0.913662E-013
 0.913466E-013
 0.913270E-013
 0.913073E-013
 0.912875E-013
 0.912677E-013
 0.912480E-013
 0.912267E-013
 0.912135E-013
 0.911655E-013
 0.912421E-013
 0.909497E-013
 0.915324E-013
 0.915745E-013
 0.908312E-013
 0.911656E-013
 0.910368E-013
 0.910662E-013
 0.910513E-013
 0.910469E-013
 0.910404E-013
 0.910343E-013
 0.910281E-013
 0.910220E-013
 0.910159E-013
 0.910098E-013
 0.910037E-013
 0.909977E-013
 0.909917E-013
 0.909857E-013
 0.909797E-013
 0.909738E-013
 0.909679E-013
 0.909620E-013
 0.909562E-013
 0.909504E-013
 0.909447E-013
 0.909390E-013
 0.909333E-013
 0.909277E-013
 0.909222E-013
 0.909167E-013
 0.909113E-013
 0.909059E-013
 0.909006E-013
 0.908954E-013
 0.908903E-013
 0.908853E-013
 0.908803E-013
 0.908755E-013
 0.908707E-013
 0.908661E-013
 0.908616E-013
 0.908572E-013
 0.908529E-013
 0.908487E-013
 0.908447E-013
 0.908409E-013
 0.908372E-013
 0.908336E-013
 0.908302E-013
 0.908270E-013
 0.908239E-013
 0.908211E-013
 0.908184E-013
 0.908159E-013
 0.908136E-013
 0.908114E-013
 0.908095E-013
 0.908078E-013
 0.908063E-013
 0.908050E-013
 0.908039E-013
 0.908030E-013
 0.908024E-013
 0.908019E-013
 0.908017E-013
 0.908017E-013
 0.908019E-013
 0.908024E-013
 0.908030E-013
 0.908039E-013
 0.908050E-013
 0.908063E-013
 0.908078E-013
 0.908095E-013
 0.908114E-013
 0.908136E-013
 0.908159E-013
 0.908184E-013
 0.908211E-013
 0.908240E-013
 0.908270E-013
 0.908302E-013
 0.908336E-013
 0.908372E-013
 0.908409E-013
 0.908448E-013
 0.908488E-013
 0.908529E-013
 0.908572E-013
 0.908616E-013
 0.908661E-013
 0.908707E-013
 0.908755E-013
 0.908803E-013
 0.908853E-013
 0.908903E-013
 0.908954E-013
 0.909006E-013
 0.909059E-013
 0.909113E-013
 0.909167E-013
 0.909222E-013
 0.909277E-013
 0.909333E-013
 0.909390E-013
 0.909447E-013
 0.909504E-013
 0.909562E-013
 0.909620E-013
 0.909679E-013
 0.909738E-013
 0.909797E-013
 0.909857E-013
 0.909917E-013
 0.909977E-013
 0.910037E-013
 0.910098E-013
 0.910159E-013
 0.910220E-013
 0.910281E-013
 0.910343E-013
 0.910404E-013
 0.910469E-013
 0.910513E-013
 0.910662E-013
 0.910368E-013
 0.911655E-013
 0.908312E-013
 0.915745E-013
 0.916820E-013
 0.908003E-013
 0.912135E-013
 0.910662E-013
 0.911113E-013
 0.911023E-013
 0.911061E-013
 0.911073E-013
 0.911089E-013
 0.911105E-013
 0.911120E-013
 0.911136E-013
 0.911152E-013
 0.911167E-013
 0.911182E-013
 0.911198E-013
 0.911213E-013
 0.911228E-013
 0.911243E-013
 0.911258E-013
 0.911273E-013
 0.911288E-013
 0.911303E-013
 0.911318E-013
 0.911332E-013
 0.911347E-013
 0.911361E-013
 0.911375E-013
 0.911389E-013
 0.911403E-013
 0.911417E-013
 0.911430E-013
 0.911444E-013
 0.911457E-013
 0.911470E-013
 0.911482E-013
 0.911495E-013
 0.911507E-013
 0.911519E-013
 0.911530E-013
 0.911541E-013
 0.911552E-013
 0.911563E-013
 0.911573E-013
 0.911583E-013
 0.911593E-013
 0.911602E-013
 0.911610E-013
 0.911619E-013
 0.911626E-013
 0.911634E-013
 0.911641E-013
 0.911647E-013
 0.911653E-013
 0.911659E-013
 0.911663E-013
 0.911668E-013
 0.911672E-013
 0.911675E-013
 0.911678E-013
 0.911680E-013
 0.911682E-013
 0.911683E-013
 0.911683E-013
 0.911683E-013
 0.911683E-013
 0.911682E-013
 0.911680E-013
 0.911678E-013
 0.911675E-013
 0.911672E-013
 0.911668E-013
 0.911663E-013
 0.911659E-013
 0.911653E-013
 0.911647E-013
 0.911641E-013
 0.911634E-013
 0.911626E-013
 0.911619E-013
 0.911610E-013
 0.911602E-013
 0.911593E-013
 0.911583E-013
 0.911573E-013
 0.911563E-013
 0.911552E-013
 0.911541E-013
 0.911530E-013
 0.911519E-013
 0.911507E-013
 0.911495E-013
 0.911482E-013
 0.911470E-013
 0.911457E-013
 0.911444E-013
 0.911430E-013
 0.911417E-013
 0.911403E-013
 0.911389E-013
 0.911375E-013
 0.911361E-013
 0.911347E-013
 0.911332E-013
 0.911318E-013
 0.911303E-013
 0.911288E-013
 0.911273E-013
 0.911258E-013
 0.911243E-013
 0.911228E-013
 0.911213E-013
 0.911198E-013
 0.911182E-013
 0.911167E-013
 0.911152E-013
 0.911136E-013
 0.911120E-013
 0.911105E-013
 0.911089E-013
 0.911073E-013
 0.911061E-013
 0.911023E-013
 0.911113E-013
 0.910662E-013
 0.912135E-013
 0.908003E-013
 0.916820E-013
 0.917722E-013
 0.907452E-013
 0.912267E-013
 0.910513E-013
 0.911023E-013
 0.910894E-013
 0.910917E-013
 0.910909E-013
 0.910906E-013
 0.910903E-013
 0.910899E-013
 0.910896E-013
 0.910893E-013
 0.910889E-013
 0.910886E-013
 0.910883E-013
 0.910879E-013
 0.910876E-013
 0.910873E-013
 0.910869E-013
 0.910866E-013
 0.910863E-013
 0.910860E-013
 0.910857E-013
 0.910854E-013
 0.910851E-013
 0.910847E-013
 0.910844E-013
 0.910841E-013
 0.910839E-013
 0.910836E-013
 0.910833E-013
 0.910830E-013
 0.910827E-013
 0.910824E-013
 0.910822E-013
 0.910819E-013
 0.910816E-013
 0.910814E-013
 0.910812E-013
 0.910809E-013
 0.910807E-013
 0.910805E-013
 0.910802E-013
 0.910800E-013
 0.910798E-013
 0.910797E-013
 0.910795E-013
 0.910793E-013
 0.910791E-013
 0.910790E-013
 0.910788E-013
 0.910787E-013
 0.910786E-013
 0.910785E-013
 0.910784E-013
 0.910783E-013
 0.910782E-013
 0.910781E-013
 0.910781E-013
 0.910780E-013
 0.910780E-013
 0.910780E-013
 0.910780E-013
 0.910780E-013
 0.910780E-013
 0.910780E-013
 0.910780E-013
 0.910781E-013
 0.910781E-013
 0.910782E-013
 0.910783E-013
 0.910784E-013
 0.910785E-013
 0.910786E-013
 0.910787E-013
 0.910788E-013
 0.910790E-013
 0.910791E-013
 0.910793E-013
 0.910795E-013
 0.910797E-013
 0.910798E-013
 0.910800E-013
 0.910802E-013
 0.910805E-013
 0.910807E-013
 0.910809E-013
 0.910812E-013
 0.910814E-013
 0.910816E-013
 0.910819E-013
 0.910822E-013
 0.910824E-013
 0.910827E-013
 0.910830E-013
 0.910833E-013
 0.910836E-013
 0.910839E-013
 0.910841E-013
 0.910844E-013
 0.910847E-013
 0.910851E-013
 0.910854E-013
 0.910857E-013
 0.910860E-013
 0.910863E-013
 0.910866E-013
 0.910870E-013
 0.910873E-013
 0.910876E-013
 0.910879E-013
 0.910883E-013
 0.910886E-013
 0.910889E-013
 0.910893E-013
 0.910896E-013
 0.910899E-013
 0.910903E-013
 0.910906E-013
 0.910909E-013
 0.910917E-013
 0.910894E-013
 0.911023E-013
 0.910513E-013
 0.912267E-013
 0.907452E-013
 0.917722E-013
 0.918659E-013
 0.906960E-013
 0.912481E-013
 0.910469E-013
 0.911061E-013
 0.910917E-013
 0.910948E-013
 0.910943E-013
 0.910944E-013
 0.910945E-013
 0.910946E-013
 0.910946E-013
 0.910947E-013
 0.910947E-013
 0.910948E-013
 0.910949E-013
 0.910949E-013
 0.910950E-013
 0.910951E-013
 0.910951E-013
 0.910952E-013
 0.910952E-013
 0.910953E-013
 0.910954E-013
 0.910954E-013
 0.910955E-013
 0.910955E-013
 0.910956E-013
 0.910957E-013
 0.910957E-013
 0.910958E-013
 0.910958E-013
 0.910959E-013
 0.910959E-013
 0.910960E-013
 0.910961E-013
 0.910961E-013
 0.910962E-013
 0.910962E-013
 0.910963E-013
 0.910963E-013
 0.910964E-013
 0.910964E-013
 0.910965E-013
 0.910965E-013
 0.910966E-013
 0.910966E-013
 0.910966E-013
 0.910967E-013
 0.910967E-013
 0.910967E-013
 0.910968E-013
 0.910968E-013
 0.910968E-013
 0.910969E-013
 0.910969E-013
 0.910969E-013
 0.910969E-013
 0.910969E-013
 0.910970E-013
 0.910970E-013
 0.910970E-013
 0.910970E-013
 0.910970E-013
 0.910970E-013
 0.910970E-013
 0.910970E-013
 0.910970E-013
 0.910970E-013
 0.910969E-013
 0.910969E-013
 0.910969E-013
 0.910969E-013
 0.910969E-013
 0.910968E-013
 0.910968E-013
 0.910968E-013
 0.910967E-013
 0.910967E-013
 0.910967E-013
 0.910966E-013
 0.910966E-013
 0.910966E-013
 0.910965E-013
 0.910965E-013
 0.910964E-013
 0.910964E-013
 0.910963E-013
 0.910963E-013
 0.910962E-013
 0.910962E-013
 0.910961E-013
 0.910961E-013
 0.910960E-013
 0.910959E-013
 0.910959E-013
 0.910958E-013
 0.910958E-013
 0.910957E-013
 0.910957E-013
 0.910956E-013
 0.910955E-013
 0.910955E-013
 0.910954E-013
 0.910954E-013
 0.910953E-013
 0.910952E-013
 0.910952E-013
 0.910951E-013
 0.910951E-013
 0.910950E-013
 0.910949E-013
 0.910949E-013
 0.910948E-013
 0.910948E-013
 0.910947E-013
 0.910946E-013
 0.910946E-013
 0.910945E-013
 0.910944E-013
 0.910943E-013
 0.910948E-013
 0.910917E-013
 0.911061E-013
 0.910469E-013
 0.912480E-013
 0.906960E-013
 0.918659E-013
 0.919587E-013
 0.906457E-013
 0.912677E-013
 0.910404E-013
 0.911073E-013
 0.910909E-013
 0.910943E-013
 0.910937E-013
 0.910937E-013
 0.910937E-013
 0.910937E-013
 0.910937E-013
 0.910937E-013
 0.910937E-013
 0.910937E-013
 0.910937E-013
 0.910937E-013
 0.910936E-013
 0.910936E-013
 0.910936E-013
 0.910936E-013
 0.910936E-013
 0.910936E-013
 0.910936E-013
 0.910936E-013
 0.910936E-013
 0.910936E-013
 0.910936E-013
 0.910936E-013
 0.910936E-013
 0.910935E-013
 0.910935E-013
 0.910935E-013
 0.910935E-013
 0.910935E-013
 0.910935E-013
 0.910935E-013
 0.910935E-013
 0.910935E-013
 0.910935E-013
 0.910935E-013
 0.910935E-013
 0.910935E-013
 0.910935E-013
 0.910935E-013
 0.910935E-013
 0.910935E-013
 0.910935E-013
 0.910935E-013
 0.910935E-013
 0.910935E-013
 0.910935E-013
 0.910935E-013
 0.910935E-013
 0.910935E-013
 0.910935E-013
 0.910935E-013
 0.910935E-013
 0.910935E-013
 0.910935E-013
 0.910935E-013
 0.910935E-013
 0.910935E-013
 0.910935E-013
 0.910935E-013
 0.910935E-013
 0.910935E-013
 0.910935E-013
 0.910935E-013
 0.910935E-013
 0.910935E-013
 0.910935E-013
 0.910935E-013
 0.910935E-013
 0.910935E-013
 0.910935E-013
 0.910935E-013
 0.910935E-013
 0.910935E-013
 0.910935E-013
 0.910935E-013
 0.910935E-013
 0.910935E-013
 0.910935E-013
 0.910935E-013
 0.910935E-013
 0.910935E-013
 0.910935E-013
 0.910935E-013
 0.910935E-013
 0.910935E-013
 0.910935E-013
 0.910935E-013
 0.910935E-013
 0.910935E-013
 0.910935E-013
 0.910935E-013
 0.910935E-013
 0.910936E-013
 0.910936E-013
 0.910936E-013
 0.910936E-013
 0.910936E-013
 0.910936E-013
 0.910936E-013
 0.910936E-013
 0.910936E-013
 0.910936E-013
 0.910936E-013
 0.910936E-013
 0.910936E-013
 0.910937E-013
 0.910937E-013
 0.910937E-013
 0.910937E-013
 0.910937E-013
 0.910937E-013
 0.910937E-013
 0.910937E-013
 0.910937E-013
 0.910937E-013
 0.910943E-013
 0.910909E-013
 0.911073E-013
 0.910404E-013
 0.912677E-013
 0.906458E-013
 0.919587E-013
 0.920513E-013
 0.905959E-013
 0.912875E-013
 0.910343E-013
 0.911089E-013
 0.910906E-013
 0.910944E-013
 0.910937E-013
 0.910939E-013
 0.910938E-013
 0.910939E-013
 0.910939E-013
 0.910939E-013
 0.910939E-013
 0.910939E-013
 0.910939E-013
 0.910939E-013
 0.910939E-013
 0.910939E-013
 0.910939E-013
 0.910939E-013
 0.910939E-013
 0.910939E-013
 0.910939E-013
 0.910939E-013
 0.910939E-013
 0.910939E-013
 0.910939E-013
 0.910939E-013
 0.910939E-013
 0.910939E-013
 0.910939E-013
 0.910939E-013
 0.910939E-013
 0.910939E-013
 0.910939E-013
 0.910940E-013
 0.910940E-013
 0.910940E-013
 0.910940E-013
 0.910940E-013
 0.910940E-013
 0.910940E-013
 0.910940E-013
 0.910940E-013
 0.910940E-013
 0.910940E-013
 0.910941E-013
 0.910941E-013
 0.910941E-013
 0.910941E-013
 0.910941E-013
 0.910941E-013
 0.910941E-013
 0.910941E-013
 0.910941E-013
 0.910941E-013
 0.910941E-013
 0.910941E-013
 0.910941E-013
 0.910941E-013
 0.910941E-013
 0.910941E-013
 0.910941E-013
 0.910941E-013
 0.910941E-013
 0.910941E-013
 0.910941E-013
 0.910941E-013
 0.910941E-013
 0.910941E-013
 0.910941E-013
 0.910941E-013
 0.910941E-013
 0.910941E-013
 0.910941E-013
 0.910941E-013
 0.910941E-013
 0.910941E-013
 0.910941E-013
 0.910941E-013
 0.910940E-013
 0.910940E-013
 0.910940E-013
 0.910940E-013
 0.910940E-013
 0.910940E-013
 0.910940E-013
 0.910940E-013
 0.910940E-013
 0.910940E-013
 0.910940E-013
 0.910939E-013
 0.910939E-013
 0.910939E-013
 0.910939E-013
 0.910939E-013
 0.910939E-013
 0.910939E-013
 0.910939E-013
 0.910939E-013
 0.910939E-013
 0.910939E-013
 0.910939E-013
 0.910939E-013
 0.910939E-013
 0.910939E-013
 0.910939E-013
 0.910939E-013
 0.910939E-013
 0.910939E-013
 0.910939E-013
 0.910939E-013
 0.910939E-013
 0.910939E-013
 0.910939E-013
 0.910939E-013
 0.910939E-013
 0.910938E-013
 0.910939E-013
 0.910937E-013
 0.910944E-013
 0.910906E-013
 0.911089E-013
 0.910343E-013
 0.912875E-013
 0.905959E-013
 0.920513E-013
 0.921436E-013
 0.905461E-013
 0.913073E-013
 0.910281E-013
 0.911105E-013
 0.910903E-013
 0.910945E-013
 0.910937E-013
 0.910938E-013
 0.910938E-013
 0.910938E-013
 0.910938E-013
 0.910938E-013
 0.910938E-013
 0.910938E-013
 0.910938E-013
 0.910938E-013
 0.910938E-013
 0.910938E-013
 0.910938E-013
 0.910938E-013
 0.910938E-013
 0.910938E-013
 0.910938E-013
 0.910938E-013
 0.910939E-013
 0.910939E-013
 0.910939E-013
 0.910939E-013
 0.910939E-013
 0.910939E-013
 0.910939E-013
 0.910939E-013
 0.910939E-013
 0.910939E-013
 0.910939E-013
 0.910939E-013
 0.910939E-013
 0.910939E-013
 0.910939E-013
 0.910939E-013
 0.910939E-013
 0.910940E-013
 0.910940E-013
 0.910940E-013
 0.910940E-013
 0.910940E-013
 0.910940E-013
 0.910940E-013
 0.910940E-013
 0.910940E-013
 0.910940E-013
 0.910941E-013
 0.910941E-013
 0.910941E-013
 0.910941E-013
 0.910941E-013
 0.910941E-013
 0.910941E-013
 0.910941E-013
 0.910941E-013
 0.910941E-013
 0.910941E-013
 0.910941E-013
 0.910941E-013
 0.910941E-013
 0.910941E-013
 0.910941E-013
 0.910941E-013
 0.910941E-013
 0.910941E-013
 0.910941E-013
 0.910941E-013
 0.910941E-013
 0.910941E-013
 0.910941E-013
 0.910940E-013
 0.910940E-013
 0.910940E-013
 0.910940E-013
 0.910940E-013
 0.910940E-013
 0.910940E-013
 0.910940E-013
 0.910940E-013
 0.910940E-013
 0.910940E-013
 0.910939E-013
 0.910939E-013
 0.910939E-013
 0.910939E-013
 0.910939E-013
 0.910939E-013
 0.910939E-013
 0.910939E-013
 0.910939E-013
 0.910939E-013
 0.910939E-013
 0.910939E-013
 0.910939E-013
 0.910939E-013
 0.910939E-013
 0.910939E-013
 0.910938E-013
 0.910938E-013
 0.910938E-013
 0.910938E-013
 0.910938E-013
 0.910938E-013
 0.910938E-013
 0.910938E-013
 0.910938E-013
 0.910938E-013
 0.910938E-013
 0.910938E-013
 0.910938E-013
 0.910938E-013
 0.910938E-013
 0.910938E-013
 0.910938E-013
 0.910937E-013
 0.910945E-013
 0.910903E-013
 0.911105E-013
 0.910281E-013
 0.913073E-013
 0.905461E-013
 0.921436E-013
 0.922357E-013
 0.904965E-013
 0.913270E-013
 0.910220E-013
 0.911120E-013
 0.910899E-013
 0.910946E-013
 0.910937E-013
 0.910939E-013
 0.910938E-013
 0.910938E-013
 0.910938E-013
 0.910938E-013
 0.910938E-013
 0.910938E-013
 0.910938E-013
 0.910938E-013
 0.910938E-013
 0.910938E-013
 0.910938E-013
 0.910938E-013
 0.910938E-013
 0.910939E-013
 0.910939E-013
 0.910939E-013
 0.910939E-013
 0.910939E-013
 0.910939E-013
 0.910939E-013
 0.910939E-013
 0.910939E-013
 0.910939E-013
 0.910939E-013
 0.910939E-013
 0.910939E-013
 0.910939E-013
 0.910939E-013
 0.910939E-013
 0.910940E-013
 0.910940E-013
 0.910940E-013
 0.910940E-013
 0.910940E-013
 0.910940E-013
 0.910940E-013
 0.910940E-013
 0.910940E-013
 0.910940E-013
 0.910941E-013