# vtk DataFile Version 3.0
Solution data
ASCII
DATASET STRUCTURED_GRID
DIMENSIONS 128 128 1
POINTS 16384  double
      0.000004      0.000004      0.000000
      0.000012      0.000004      0.000000
      0.000020      0.000004      0.000000
      0.000027      0.000004      0.000000
      0.000035      0.000004      0.000000
      0.000043      0.000004      0.000000
      0.000051      0.000004      0.000000
      0.000059      0.000004      0.000000
      0.000066      0.000004      0.000000
      0.000074      0.000004      0.000000
      0.000082      0.000004      0.000000
      0.000090      0.000004      0.000000
      0.000098      0.000004      0.000000
      0.000105      0.000004      0.000000
      0.000113      0.000004      0.000000
      0.000121      0.000004      0.000000
      0.000129      0.000004      0.000000
      0.000137      0.000004      0.000000
      0.000145      0.000004      0.000000
      0.000152      0.000004      0.000000
      0.000160      0.000004      0.000000
      0.000168      0.000004      0.000000
      0.000176      0.000004      0.000000
      0.000184      0.000004      0.000000
      0.000191      0.000004      0.000000
      0.000199      0.000004      0.000000
      0.000207      0.000004      0.000000
      0.000215      0.000004      0.000000
      0.000223      0.000004      0.000000
      0.000230      0.000004      0.000000
      0.000238      0.000004      0.000000
      0.000246      0.000004      0.000000
      0.000254      0.000004      0.000000
      0.000262      0.000004      0.000000
      0.000270      0.000004      0.000000
      0.000277      0.000004      0.000000
      0.000285      0.000004      0.000000
      0.000293      0.000004      0.000000
      0.000301      0.000004      0.000000
      0.000309      0.000004      0.000000
      0.000316      0.000004      0.000000
      0.000324      0.000004      0.000000
      0.000332      0.000004      0.000000
      0.000340      0.000004      0.000000
      0.000348      0.000004      0.000000
      0.000355      0.000004      0.000000
      0.000363      0.000004      0.000000
      0.000371      0.000004      0.000000
      0.000379      0.000004      0.000000
      0.000387      0.000004      0.000000
      0.000395      0.000004      0.000000
      0.000402      0.000004      0.000000
      0.000410      0.000004      0.000000
      0.000418      0.000004      0.000000
      0.000426      0.000004      0.000000
      0.000434      0.000004      0.000000
      0.000441      0.000004      0.000000
      0.000449      0.000004      0.000000
      0.000457      0.000004      0.000000
      0.000465      0.000004      0.000000
      0.000473      0.000004      0.000000
      0.000480      0.000004      0.000000
      0.000488      0.000004      0.000000
      0.000496      0.000004      0.000000
      0.000504      0.000004      0.000000
      0.000512      0.000004      0.000000
      0.000520      0.000004      0.000000
      0.000527      0.000004      0.000000
      0.000535      0.000004      0.000000
      0.000543      0.000004      0.000000
      0.000551      0.000004      0.000000
      0.000559      0.000004      0.000000
      0.000566      0.000004      0.000000
      0.000574      0.000004      0.000000
      0.000582      0.000004      0.000000
      0.000590      0.000004      0.000000
      0.000598      0.000004      0.000000
      0.000605      0.000004      0.000000
      0.000613      0.000004      0.000000
      0.000621      0.000004      0.000000
      0.000629      0.000004      0.000000
      0.000637      0.000004      0.000000
      0.000645      0.000004      0.000000
      0.000652      0.000004      0.000000
      0.000660      0.000004      0.000000
      0.000668      0.000004      0.000000
      0.000676      0.000004      0.000000
      0.000684      0.000004      0.000000
      0.000691      0.000004      0.000000
      0.000699      0.000004      0.000000
      0.000707      0.000004      0.000000
      0.000715      0.000004      0.000000
      0.000723      0.000004      0.000000
      0.000730      0.000004      0.000000
      0.000738      0.000004      0.000000
      0.000746      0.000004      0.000000
      0.000754      0.000004      0.000000
      0.000762      0.000004      0.000000
      0.000770      0.000004      0.000000
      0.000777      0.000004      0.000000
      0.000785      0.000004      0.000000
      0.000793      0.000004      0.000000
      0.000801      0.000004      0.000000
      0.000809      0.000004      0.000000
      0.000816      0.000004      0.000000
      0.000824      0.000004      0.000000
      0.000832      0.000004      0.000000
      0.000840      0.000004      0.000000
      0.000848      0.000004      0.000000
      0.000855      0.000004      0.000000
      0.000863      0.000004      0.000000
      0.000871      0.000004      0.000000
      0.000879      0.000004      0.000000
      0.000887      0.000004      0.000000
      0.000895      0.000004      0.000000
      0.000902      0.000004      0.000000
      0.000910      0.000004      0.000000
      0.000918      0.000004      0.000000
      0.000926      0.000004      0.000000
      0.000934      0.000004      0.000000
      0.000941      0.000004      0.000000
      0.000949      0.000004      0.000000
      0.000957      0.000004      0.000000
      0.000965      0.000004      0.000000
      0.000973      0.000004      0.000000
      0.000980      0.000004      0.000000
      0.000988      0.000004      0.000000
      0.000996      0.000004      0.000000
      0.000004      0.000012      0.000000
      0.000012      0.000012      0.000000
      0.000020      0.000012      0.000000
      0.000027      0.000012      0.000000
      0.000035      0.000012      0.000000
      0.000043      0.000012      0.000000
      0.000051      0.000012      0.000000
      0.000059      0.000012      0.000000
      0.000066      0.000012      0.000000
      0.000074      0.000012      0.000000
      0.000082      0.000012      0.000000
      0.000090      0.000012      0.000000
      0.000098      0.000012      0.000000
      0.000105      0.000012      0.000000
      0.000113      0.000012      0.000000
      0.000121      0.000012      0.000000
      0.000129      0.000012      0.000000
      0.000137      0.000012      0.000000
      0.000145      0.000012      0.000000
      0.000152      0.000012      0.000000
      0.000160      0.000012      0.000000
      0.000168      0.000012      0.000000
      0.000176      0.000012      0.000000
      0.000184      0.000012      0.000000
      0.000191      0.000012      0.000000
      0.000199      0.000012      0.000000
      0.000207      0.000012      0.000000
      0.000215      0.000012      0.000000
      0.000223      0.000012      0.000000
      0.000230      0.000012      0.000000
      0.000238      0.000012      0.000000
      0.000246      0.000012      0.000000
      0.000254      0.000012      0.000000
      0.000262      0.000012      0.000000
      0.000270      0.000012      0.000000
      0.000277      0.000012      0.000000
      0.000285      0.000012      0.000000
      0.000293      0.000012      0.000000
      0.000301      0.000012      0.000000
      0.000309      0.000012      0.000000
      0.000316      0.000012      0.000000
      0.000324      0.000012      0.000000
      0.000332      0.000012      0.000000
      0.000340      0.000012      0.000000
      0.000348      0.000012      0.000000
      0.000355      0.000012      0.000000
      0.000363      0.000012      0.000000
      0.000371      0.000012      0.000000
      0.000379      0.000012      0.000000
      0.000387      0.000012      0.000000
      0.000395      0.000012      0.000000
      0.000402      0.000012      0.000000
      0.000410      0.000012      0.000000
      0.000418      0.000012      0.000000
      0.000426      0.000012      0.000000
      0.000434      0.000012      0.000000
      0.000441      0.000012      0.000000
      0.000449      0.000012      0.000000
      0.000457      0.000012      0.000000
      0.000465      0.000012      0.000000
      0.000473      0.000012      0.000000
      0.000480      0.000012      0.000000
      0.000488      0.000012      0.000000
      0.000496      0.000012      0.000000
      0.000504      0.000012      0.000000
      0.000512      0.000012      0.000000
      0.000520      0.000012      0.000000
      0.000527      0.000012      0.000000
      0.000535      0.000012      0.000000
      0.000543      0.000012      0.000000
      0.000551      0.000012      0.000000
      0.000559      0.000012      0.000000
      0.000566      0.000012      0.000000
      0.000574      0.000012      0.000000
      0.000582      0.000012      0.000000
      0.000590      0.000012      0.000000
      0.000598      0.000012      0.000000
      0.000605      0.000012      0.000000
      0.000613      0.000012      0.000000
      0.000621      0.000012      0.000000
      0.000629      0.000012      0.000000
      0.000637      0.000012      0.000000
      0.000645      0.000012      0.000000
      0.000652      0.000012      0.000000
      0.000660      0.000012      0.000000
      0.000668      0.000012      0.000000
      0.000676      0.000012      0.000000
      0.000684      0.000012      0.000000
      0.000691      0.000012      0.000000
      0.000699      0.000012      0.000000
      0.000707      0.000012      0.000000
      0.000715      0.000012      0.000000
      0.000723      0.000012      0.000000
      0.000730      0.000012      0.000000
      0.000738      0.000012      0.000000
      0.000746      0.000012      0.000000
      0.000754      0.000012      0.000000
      0.000762      0.000012      0.000000
      0.000770      0.000012      0.000000
      0.000777      0.000012      0.000000
      0.000785      0.000012      0.000000
[...]
POINT_DATA 16384
SCALARS rhoe double
LOOKUP_TABLE default
 0.915923E-013
 0.912822E-013
 0.915300E-013
 0.915784E-013
 0.916855E-013
 0.917776E-013
 0.918727E-013
 0.919669E-013
 0.920610E-013
 0.921547E-013
 0.922482E-013
 0.923414E-013
 0.924343E-013
 0.925269E-013
 0.926191E-013
 0.927110E-013
 0.928024E-013
 0.928935E-013
 0.929841E-013
 0.930742E-013
 0.931638E-013
 0.932529E-013
 0.933414E-013
 0.934292E-013
 0.935164E-013
 0.936028E-013
 0.936885E-013
 0.937733E-013
 0.938572E-013
 0.939402E-013
 0.940221E-013
 0.941029E-013
 0.941826E-013
 0.942610E-013
 0.943381E-013
 0.944138E-013
 0.944879E-013
 0.945606E-013
 0.946315E-013
 0.947007E-013
 0.947681E-013
 0.948335E-013
 0.948970E-013
 0.949583E-013
 0.950174E-013
 0.950742E-013
 0.951287E-013
 0.951806E-013
 0.952301E-013
 0.952769E-013
 0.953209E-013
 0.953622E-013
 0.954007E-013
 0.954361E-013
 0.954686E-013
 0.954980E-013
 0.955243E-013
 0.955474E-013
 0.955673E-013
 0.955840E-013
 0.955973E-013
 0.956074E-013
 0.956141E-013
 0.956174E-013
 0.956174E-013
 0.956141E-013
 0.956074E-013
 0.955973E-013
 0.955840E-013
 0.955673E-013
 0.955474E-013
 0.955243E-013
 0.954980E-013
 0.954686E-013
 0.954361E-013
 0.954007E-013
 0.953622E-013
 0.953209E-013
 0.952769E-013
 0.952301E-013
 0.951806E-013
 0.951287E-013
 0.950742E-013
 0.950174E-013
 0.949583E-013
 0.948970E-013
 0.948335E-013
 0.947681E-013
 0.947007E-013
 0.946315E-013
 0.945606E-013
 0.944879E-013
 0.944138E-013
 0.943381E-013
 0.942610E-013
 0.941826E-013
 0.941029E-013
 0.940221E-013
 0.939402E-013
 0.938572E-013
 0.937733E-013
 0.936885E-013
 0.936028E-013
 0.935164E-013
 0.934292E-013
 0.933414E-013
 0.932529E-013
 0.931638E-013
 0.930742E-013
 0.929841E-013
 0.928935E-013
 0.928024E-013
 0.927109E-013
 0.926191E-013
 0.925269E-013
 0.924343E-013
 0.923414E-013
 0.922482E-013
 0.921547E-013
 0.920610E-013
 0.919669E-013
 0.918727E-013
 0.917776E-013
 0.916855E-013
 0.915784E-013
 0.915300E-013
 0.912822E-013
 0.915923E-013
 0.912822E-013
 0.908178E-013
 0.909519E-013
 0.908394E-013
 0.908072E-013
 0.907538E-013
 0.907053E-013
 0.906561E-013
 0.906071E-013
 0.905582E-013
 0.905095E-013
 0.904610E-013
 0.904126E-013
 0.903644E-013
 0.903164E-013
 0.902685E-013
 0.902209E-013
 0.901735E-013
 0.901263E-013
 0.900794E-013
 0.900327E-013
 0.899863E-013
 0.899403E-013
 0.898945E-013
 0.898491E-013
 0.898041E-013
 0.897595E-013
 0.897154E-013
 0.896717E-013
 0.896285E-013
 0.895858E-013
 0.895437E-013
 0.895022E-013
 0.894614E-013
 0.894213E-013
 0.893818E-013
 0.893432E-013
 0.893054E-013
 0.892684E-013
 0.892324E-013
 0.891973E-013
 0.891632E-013
 0.891301E-013
 0.890982E-013
 0.890674E-013
 0.890378E-013
 0.890094E-013
 0.889823E-013
 0.889566E-013
 0.889322E-013
 0.889092E-013
 0.888877E-013
 0.888677E-013
 0.888492E-013
 0.888323E-013
 0.888170E-013
 0.888033E-013
 0.887912E-013
 0.887808E-013
 0.887722E-013
 0.887652E-013
 0.887600E-013
 0.887565E-013
 0.887547E-013
 0.887547E-013
 0.887565E-013
 0.887600E-013
 0.887652E-013
 0.887722E-013
 0.887808E-013
 0.887912E-013
 0.888033E-013
 0.888170E-013
 0.888323E-013
 0.888492E-013
 0.888677E-013
 0.888877E-013
 0.889093E-013
 0.889322E-013
 0.889566E-013
 0.889824E-013
 0.890095E-013
 0.890378E-013
 0.890674E-013
 0.890982E-013
 0.891302E-013
 0.891632E-013
 0.891973E-013
 0.892324E-013
 0.892685E-013
 0.893054E-013
 0.893432E-013
 0.893819E-013
 0.894213E-013
 0.894614E-013
 0.895023E-013
 0.895438E-013
 0.895858E-013
 0.896285E-013
 0.896717E-013
 0.897154E-013
 0.897596E-013
 0.898042E-013
 0.898492E-013
 0.898946E-013
 0.899403E-013
 0.899864E-013
 0.900328E-013
 0.900794E-013
 0.901263E-013
 0.901735E-013
 0.902209E-013
 0.902686E-013
 0.903164E-013
 0.903644E-013
 0.904126E-013
 0.904610E-013
 0.905096E-013
 0.905583E-013
 0.906071E-013
 0.906561E-013
 0.907054E-013
 0.907538E-013
 0.908072E-013
 0.908394E-013
 0.909519E-013
 0.908178E-013
 0.912822E-013
 0.915300E-013
 0.909519E-013
 0.912322E-013
 0.911619E-013
 0.912054E-013
 0.912185E-013
 0.912385E-013
 0.912570E-013
 0.912757E-013
 0.912943E-013
 0.913128E-013
 0.913313E-013
 0.913498E-013
 0.913681E-013
 0.913864E-013
 0.914046E-013
 0.914228E-013
 0.914408E-013
 0.914588E-013
 0.914767E-013
 0.914944E-013
 0.915121E-013
 0.915296E-013
 0.915470E-013
 0.915643E-013
 0.915814E-013
 0.915984E-013
 0.916152E-013
 0.916318E-013
 0.916483E-013
 0.916645E-013
 0.916805E-013
 0.916963E-013
 0.917118E-013
 0.917271E-013
 0.917421E-013
 0.917568E-013
 0.917712E-013
 0.917852E-013
 0.917989E-013
 0.918123E-013
 0.918253E-013
 0.918378E-013
 0.918500E-013
 0.918617E-013
 0.918729E-013
 0.918837E-013
 0.918940E-013
 0.919038E-013
 0.919131E-013
 0.919218E-013
 0.919300E-013
 0.919376E-013
 0.919447E-013
 0.919511E-013
 0.919569E-013
 0.919621E-013
 0.919667E-013
 0.919707E-013
 0.919740E-013
 0.919766E-013
 0.919786E-013
 0.919799E-013
 0.919806E-013
 0.919806E-013
 0.919799E-013
 0.919786E-013
 0.919766E-013
 0.919740E-013
 0.919707E-013
 0.919667E-013
 0.919621E-013
 0.919569E-013
 0.919511E-013
 0.919447E-013
 0.919376E-013
 0.919300E-013
 0.919218E-013
 0.919131E-013
 0.919038E-013
 0.918940E-013
 0.918837E-013
 0.918729E-013
 0.918617E-013
 0.918500E-013
 0.918378E-013
 0.918252E-013
 0.918123E-013
 0.917989E-013
 0.917852E-013
 0.917712E-013
 0.917568E-013
 0.917421E-013
 0.917271E-013
 0.917118E-013
 0.916963E-013
 0.916805E-013
 0.916645E-013
 0.916482E-013
 0.916318E-013
 0.916152E-013
 0.915984E-013
 0.915814E-013
 0.915643E-013
 0.915470E-013
 0.915296E-013
 0.915121E-013
 0.914944E-013
 0.914766E-013
 0.914588E-013
 0.914408E-013
 0.914228E-013
 0.914046E-013
 0.913864E-013
 0.913681E-013
 0.913497E-013
 0.913313E-013
 0.913128E-013
 0.912943E-013
 0.912757E-013
 0.912570E-013
 0.912384E-013
 0.912185E-013
 0.912054E-013
 0.911619E-013
 0.912322E-013
 0.909519E-013
 0.915300E-013
 0.915784E-013
 0.908394E-013
 0.911619E-013
 0.910428E-013
 0.910688E-013
 0.910558E-013
 0.910517E-013
 0.910459E-013
 0.910404E-013
 0.910348E-013
 0.910293E-013
 0.910238E-013
 0.910183E-013
 0.910129E-013
 0.910074E-013
 0.910020E-013
 0.909966E-013
 0.909912E-013
 0.909859E-013
 0.909806E-013
 0.909753E-013
 0.909701E-013
 0.909648E-013
 0.909597E-013
 0.909545E-013
 0.909494E-013
 0.909444E-013
 0.909394E-013
 0.909345E-013
 0.909296E-013
 0.909248E-013
 0.909200E-013
 0.909153E-013
 0.909107E-013
 0.909062E-013
 0.909017E-013
 0.908974E-013
 0.908931E-013
 0.908889E-013
 0.908848E-013
 0.908809E-013
 0.908770E-013
 0.908733E-013
 0.908697E-013
 0.908662E-013
 0.908629E-013
 0.908597E-013
 0.908566E-013
 0.908537E-013
 0.908510E-013
 0.908484E-013
 0.908460E-013
 0.908437E-013
 0.908416E-013
 0.908397E-013
 0.908380E-013
 0.908364E-013
 0.908351E-013
 0.908339E-013
 0.908329E-013
 0.908322E-013
 0.908316E-013
 0.908312E-013
 0.908310E-013
 0.908310E-013
 0.908312E-013
 0.908316E-013
 0.908322E-013
 0.908329E-013
 0.908339E-013
 0.908351E-013
 0.908364E-013
 0.908380E-013
 0.908397E-013
 0.908416E-013
 0.908437E-013
 0.908460E-013
 0.908484E-013
 0.908510E-013
 0.908537E-013
 0.908566E-013
 0.908597E-013
 0.908629E-013
 0.908662E-013
 0.908697E-013
 0.908733E-013
 0.908770E-013
 0.908809E-013
 0.908849E-013
 0.908889E-013
 0.908931E-013
 0.908974E-013
 0.909017E-013
 0.909062E-013
 0.909107E-013
 0.909153E-013
 0.909200E-013
 0.909248E-013
 0.909296E-013
 0.909345E-013
 0.909394E-013
 0.909444E-013
 0.909495E-013
 0.909545E-013
 0.909597E-013
 0.909649E-013
 0.909701E-013
 0.909753E-013
 0.909806E-013
 0.909859E-013
 0.909912E-013
 0.909966E-013
 0.910020E-013
 0.910074E-013
 0.910129E-013
 0.910183E-013
 0.910238E-013
 0.910293E-013
 0.910348E-013
 0.910404E-013
 0.910459E-013
 0.910517E-013
 0.910558E-013
 0.910688E-013
 0.910428E-013
 0.911619E-013
 0.908394E-013
 0.915784E-013
 0.916855E-013
 0.908072E-013
 0.912054E-013
 0.910688E-013
 0.911088E-013
 0.911012E-013
 0.911043E-013
 0.911054E-013
 0.911068E-013
 0.911081E-013
 0.911094E-013
 0.911108E-013
 0.911121E-013
 0.911134E-013
 0.911148E-013
 0.911161E-013
 0.911174E-013
 0.911187E-013
 0.911200E-013
 0.911213E-013
 0.911226E-013
 0.911239E-013
 0.911251E-013
 0.911264E-013
 0.911276E-013
 0.911289E-013
 0.911301E-013
 0.911313E-013
 0.911325E-013
 0.911337E-013
 0.911349E-013
 0.911361E-013
 0.911372E-013
 0.911383E-013
 0.911394E-013
 0.911405E-013
 0.911416E-013
 0.911426E-013
 0.911436E-013
 0.911446E-013
 0.911456E-013
 0.911465E-013
 0.911475E-013
 0.911483E-013
 0.911492E-013
 0.911500E-013
 0.911508E-013
 0.911515E-013
 0.911522E-013
 0.911529E-013
 0.911535E-013
 0.911541E-013
 0.911547E-013
 0.911552E-013
 0.911557E-013
 0.911561E-013
 0.911565E-013
 0.911568E-013
 0.911571E-013
 0.911573E-013
 0.911575E-013
 0.911577E-013
 0.911578E-013
 0.911578E-013
 0.911578E-013
 0.911578E-013
 0.911577E-013
 0.911575E-013
 0.911573E-013
 0.911571E-013
 0.911568E-013
 0.911565E-013
 0.911561E-013
 0.911557E-013
 0.911552E-013
 0.911547E-013
 0.911541E-013
 0.911535E-013
 0.911529E-013
 0.911522E-013
 0.911515E-013
 0.911508E-013
 0.911500E-013
 0.911492E-013
 0.911483E-013
 0.911475E-013
 0.911465E-013
 0.911456E-013
 0.911446E-013
 0.911436E-013
 0.911426E-013
 0.911416E-013
 0.911405E-013
 0.911394E-013
 0.911383E-013
 0.911372E-013
 0.911361E-013
 0.911349E-013
 0.911337E-013
 0.911325E-013
 0.911313E-013
 0.911301E-013
 0.911289E-013
 0.911276E-013
 0.911264E-013
 0.911251E-013
 0.911239E-013
 0.911226E-013
 0.911213E-013
 0.911200E-013
 0.911187E-013
 0.911174E-013
 0.911161E-013
 0.911148E-013
 0.911134E-013
 0.911121E-013
 0.911108E-013
 0.911094E-013
 0.911081E-013
 0.911068E-013
 0.911054E-013
 0.911043E-013
 0.911012E-013
 0.911088E-013
 0.910688E-013
 0.912054E-013
 0.908072E-013
 0.916855E-013
 0.917776E-013
 0.907538E-013
 0.912185E-013
 0.910558E-013
 0.911012E-013
 0.910902E-013
 0.910921E-013
 0.910914E-013
 0.910912E-013
 0.910909E-013
 0.910906E-013
 0.910904E-013
 0.910901E-013
 0.910898E-013
 0.910895E-013
 0.910893E-013
 0.910890E-013
 0.910887E-013
 0.910885E-013
 0.910882E-013
 0.910879E-013
 0.910877E-013
 0.910874E-013
 0.910872E-013
 0.910869E-013
 0.910867E-013
 0.910864E-013
 0.910862E-013
 0.910859E-013
 0.910857E-013
 0.910854E-013
 0.910852E-013
 0.910850E-013
 0.910847E-013
 0.910845E-013
 0.910843E-013
 0.910841E-013
 0.910839E-013
 0.910837E-013
 0.910835E-013
 0.910833E-013
 0.910831E-013
 0.910829E-013
 0.910827E-013
 0.910826E-013
 0.910824E-013
 0.910823E-013
 0.910821E-013
 0.910820E-013
 0.910818E-013
 0.910817E-013
 0.910816E-013
 0.910815E-013
 0.910814E-013
 0.910813E-013
 0.910812E-013
 0.910811E-013
 0.910811E-013
 0.910810E-013
 0.910810E-013
 0.910809E-013
 0.910809E-013
 0.910809E-013
 0.910809E-013
 0.910809E-013
 0.910809E-013
 0.910809E-013
 0.910809E-013
 0.910810E-013
 0.910810E-013
 0.910811E-013
 0.910811E-013
 0.910812E-013
 0.910813E-013
 0.910814E-013
 0.910815E-013
 0.910816E-013
 0.910817E-013
 0.910818E-013
 0.910820E-013
 0.910821E-013
 0.910823E-013
 0.910824E-013
 0.910826E-013
 0.910827E-013
 0.910829E-013
 0.910831E-013
 0.910833E-013
 0.910835E-013
 0.910837E-013
 0.910839E-013
 0.910841E-013
 0.910843E-013
 0.910845E-013
 0.910847E-013
 0.910850E-013
 0.910852E-013
 0.910854E-013
 0.910857E-013
 0.910859E-013
 0.910862E-013
 0.910864E-013
 0.910867E-013
 0.910869E-013
 0.910872E-013
 0.910874E-013
 0.910877E-013
 0.910879E-013
 0.910882E-013
 0.910885E-013
 0.910887E-013
 0.910890E-013
 0.910893E-013
 0.910895E-013
 0.910898E-013
 0.910901E-013
 0.910904E-013
 0.910906E-013
 0.910909E-013
 0.910912E-013
 0.910914E-013
 0.910921E-013
 0.910902E-013
 0.911012E-013
 0.910558E-013
 0.912185E-013
 0.907538E-013
 0.917776E-013
 0.918727E-013
 0.907053E-013
 0.912385E-013
 0.910517E-013
 0.911043E-013
 0.910921E-013
 0.910946E-013
 0.910942E-013
 0.910943E-013
 0.910943E-013
 0.910944E-013
 0.910944E-013
 0.910945E-013
 0.910945E-013
 0.910946E-013
 0.910946E-013
 0.910947E-013
 0.910947E-013
 0.910948E-013
 0.910948E-013
 0.910949E-013
 0.910949E-013
 0.910950E-013
 0.910950E-013
 0.910951E-013
 0.910951E-013
 0.910952E-013
 0.910952E-013
 0.910953E-013
 0.910953E-013
 0.910954E-013
 0.910954E-013
 0.910954E-013
 0.910955E-013
 0.910955E-013
 0.910956E-013
 0.910956E-013
 0.910957E-013
 0.910957E-013
 0.910957E-013
 0.910958E-013
 0.910958E-013
 0.910959E-013
 0.910959E-013
 0.910959E-013
 0.910960E-013
 0.910960E-013
 0.910960E-013
 0.910961E-013
 0.910961E-013
 0.910961E-013
 0.910962E-013
 0.910962E-013
 0.910962E-013
 0.910962E-013
 0.910963E-013
 0.910963E-013
 0.910963E-013
 0.910963E-013
 0.910963E-013
 0.910963E-013
 0.910963E-013
 0.910963E-013
 0.910963E-013
 0.910963E-013
 0.910963E-013
 0.910963E-013
 0.910963E-013
 0.910963E-013
 0.910963E-013
 0.910963E-013
 0.910963E-013
 0.910963E-013
 0.910962E-013
 0.910962E-013
 0.910962E-013
 0.910962E-013
 0.910961E-013
 0.910961E-013
 0.910961E-013
 0.910960E-013
 0.910960E-013
 0.910960E-013
 0.910959E-013
 0.910959E-013
 0.910959E-013
 0.910958E-013
 0.910958E-013
 0.910957E-013
 0.910957E-013
 0.910957E-013
 0.910956E-013
 0.910956E-013
 0.910955E-013
 0.910955E-013
 0.910954E-013
 0.910954E-013
 0.910954E-013
 0.910953E-013
 0.910953E-013
 0.910952E-013
 0.910952E-013
 0.910951E-013
 0.910951E-013
 0.910950E-013
 0.910950E-013
 0.910949E-013
 0.910949E-013
 0.910948E-013
 0.910948E-013
 0.910947E-013
 0.910947E-013
 0.910946E-013
 0.910946E-013
 0.910945E-013
 0.910945E-013
 0.910944E-013
 0.910944E-013
 0.910944E-013
 0.910943E-013
 0.910942E-013
 0.910946E-013
 0.910921E-013
 0.911043E-013
 0.910517E-013
 0.912384E-013
 0.907054E-013
 0.918727E-013
 0.919669E-013
 0.906561E-013
 0.912570E-013
 0.910459E-013
 0.911054E-013
 0.910914E-013
 0.910942E-013
 0.910937E-013
 0.910938E-013
 0.910938E-013
 0.910937E-013
 0.910937E-013
 0.910937E-013
 0.910937E-013
 0.910937E-013
 0.910937E-013
 0.910937E-013
 0.910937E-013
 0.910937E-013
 0.910937E-013
 0.910937E-013
 0.910937E-013
 0.910937E-013
 0.910937E-013
 0.910937E-013
 0.910937E-013
 0.910936E-013
 0.910936E-013
 0.910936E-013
 0.910936E-013
 0.910936E-013
 0.910936E-013
 0.910936E-013
 0.910936E-013
 0.910936E-013
 0.910936E-013
 0.910936E-013
 0.910936E-013
 0.910936E-013
 0.910936E-013
 0.910936E-013
 0.910936E-013
 0.910936E-013
 0.910936E-013
 0.910936E-013
 0.910936E-013
 0.910936E-013
 0.910936E-013
 0.910936E-013
 0.910937E-013
 0.910937E-013
 0.910937E-013
 0.910937E-013
 0.910937E-013
 0.910937E-013
 0.910937E-013
 0.910937E-013
 0.910937E-013
 0.910937E-013
 0.910937E-013
 0.910937E-013
 0.910937E-013
 0.910937E-013
 0.910937E-013
 0.910937E-013
 0.910937E-013
 0.910937E-013
 0.910937E-013
 0.910937E-013
 0.910937E-013
 0.910937E-013
 0.910937E-013
 0.910937E-013
 0.910937E-013
 0.910937E-013
 0.910937E-013
 0.910937E-013
 0.910937E-013
 0.910937E-013
 0.910936E-013
 0.910936E-013
 0.910936E-013
 0.910936E-013
 0.910936E-013
 0.910936E-013
 0.910936E-013
 0.910936E-013
 0.910936E-013
 0.910936E-013
 0.910936E-013
 0.910936E-013
 0.910936E-013
 0.910936E-013
 0.910936E-013
 0.910936E-013
 0.910936E-013
 0.910936E-013
 0.910936E-013
 0.910936E-013
 0.910936E-013
 0.910936E-013
 0.910936E-013
 0.910937E-013
 0.910937E-013
 0.910937E-013
 0.910937E-013
 0.910937E-013
 0.910937E-013
 0.910937E-013
 0.910937E-013
 0.910937E-013
 0.910937E-013
 0.910937E-013
 0.910937E-013
 0.910937E-013
 0.910937E-013
 0.910937E-013
 0.910937E-013
 0.910938E-013
 0.910938E-013
 0.910937E-013
 0.910942E-013
 0.910914E-013
 0.911054E-013
 0.910459E-013
 0.912570E-013
 0.906561E-013
 0.919669E-013
 0.920610E-013
 0.906071E-013
 0.912757E-013
 0.910404E-013
 0.911068E-013
 0.910912E-013
 0.910943E-013
 0.910938E-013
 0.910939E-013
 0.910938E-013
 0.910938E-013
 0.910938E-013
 0.910938E-013
 0.910939E-013
 0.910939E-013
 0.910939E-013
 0.910939E-013
 0.910939E-013
 0.910939E-013
 0.910939E-013
 0.910939E-013
 0.910939E-013
 0.910939E-013
 0.910939E-013
 0.910939E-013
 0.910939E-013
 0.910939E-013
 0.910939E-013
 0.910939E-013
 0.910939E-013
 0.910939E-013
 0.910939E-013
 0.910939E-013
 0.910939E-013
 0.910939E-013
 0.910939E-013
 0.910939E-013
 0.910940E-013
 0.910940E-013
 0.910940E-013
 0.910940E-013
 0.910940E-013
 0.910940E-013
 0.910940E-013
 0.910940E-013
 0.910940E-013
 0.910940E-013
 0.910940E-013
 0.910941E-013
 0.910941E-013
 0.910941E-013
 0.910941E-013
 0.910941E-013
 0.910941E-013
 0.910941E-013
 0.910941E-013
 0.910941E-013
 0.910941E-013
 0.910941E-013
 0.910941E-013
 0.910941E-013
 0.910941E-013
 0.910941E-013
 0.910941E-013
 0.910941E-013
 0.910941E-013
 0.910941E-013
 0.910941E-013
 0.910941E-013
 0.910941E-013
 0.910941E-013
 0.910941E-013
 0.910941E-013
 0.910941E-013
 0.910941E-013
 0.910941E-013
 0.910941E-013
 0.910941E-013
 0.910941E-013
 0.910941E-013
 0.910940E-013
 0.910940E-013
 0.910940E-013
 0.910940E-013
 0.910940E-013
 0.910940E-013
 0.910940E-013
 0.910940E-013
 0.910940E-013
 0.910940E-013
 0.910940E-013
 0.910939E-013
 0.910939E-013
 0.910939E-013
 0.910939E-013
 0.910939E-013
 0.910939E-013
 0.910939E-013
 0.910939E-013
 0.910939E-013
 0.910939E-013
 0.910939E-013
 0.910939E-013
 0.910939E-013
 0.910939E-013
 0.910939E-013
 0.910939E-013
 0.910939E-013
 0.910939E-013
 0.910939E-013
 0.910939E-013
 0.910939E-013
 0.910939E-013
 0.910939E-013
 0.910939E-013
 0.910939E-013
 0.910938E-013
 0.910938E-013
 0.910938E-013
 0.910939E-013
 0.910938E-013
 0.910943E-013
 0.910912E-013
 0.911068E-013
 0.910404E-013
 0.912757E-013
 0.906071E-013
 0.920610E-013
 0.921547E-013
 0.905582E-013
 0.912943E-013
 0.910348E-013
 0.911081E-013
 0.910909E-013
 0.910943E-013
 0.910938E-013
 0.910938E-013
 0.910938E-013
 0.910938E-013
 0.910938E-013
 0.910938E-013
 0.910938E-013
 0.910938E-013
 0.910938E-013
 0.910938E-013
 0.910938E-013
 0.910938E-013
 0.910938E-013
 0.910938E-013
 0.910938E-013
 0.910938E-013
 0.910938E-013
 0.910939E-013
 0.910939E-013
 0.910939E-013
 0.910939E-013
 0.910939E-013
 0.910939E-013
 0.910939E-013
 0.910939E-013
 0.910939E-013
 0.910939E-013
 0.910939E-013
 0.910939E-013
 0.910939E-013
 0.910939E-013
 0.910939E-013
 0.910939E-013
 0.910940E-013
 0.910940E-013
 0.910940E-013
 0.910940E-013
 0.910940E-013
 0.910940E-013
 0.910940E-013
 0.910940E-013
 0.910940E-013
 0.910940E-013
 0.910941E-013
 0.910941E-013
 0.910941E-013
 0.910941E-013
 0.910941E-013
 0.910941E-013
 0.910941E-013
 0.910941E-013
 0.910941E-013
 0.910941E-013
 0.910941E-013
 0.910941E-013
 0.910941E-013
 0.910941E-013
 0.910941E-013
 0.910941E-013
 0.910941E-013
 0.910941E-013
 0.910941E-013
 0.910941E-013
 0.910941E-013
 0.910941E-013
 0.910941E-013
 0.910941E-013
 0.910941E-013
 0.910941E-013
 0.910941E-013
 0.910941E-013
 0.910940E-013
 0.910940E-013
 0.910940E-013
 0.910940E-013
 0.910940E-013
 0.910940E-013
 0.910940E-013
 0.910940E-013
 0.910940E-013
 0.910940E-013
 0.910939E-013
 0.910939E-013
 0.910939E-013
 0.910939E-013
 0.910939E-013
 0.910939E-013
 0.910939E-013
 0.910939E-013
 0.910939E-013
 0.910939E-013
 0.910939E-013
 0.910939E-013
 0.910939E-013
 0.910939E-013
 0.910939E-013
 0.910939E-013
 0.910939E-013
 0.910938E-013
 0.910938E-013
 0.910938E-013
 0.910938E-013
 0.910938E-013
 0.910938E-013
 0.910938E-013
 0.910938E-013
 0.910938E-013
 0.910938E-013
 0.910938E-013
 0.910938E-013
 0.910938E-013
 0.910938E-013
 0.910938E-013
 0.910938E-013
 0.910944E-013
 0.910909E-013
 0.911081E-013
 0.910348E-013
 0.912943E-013
 0.905583E-013
 0.921547E-013
 0.922482E-013
 0.905095E-013
 0.913128E-013
 0.910293E-013
 0.911094E-013
 0.910906E-013
 0.910944E-013
 0.910937E-013
 0.910938E-013
 0.910938E-013
 0.910938E-013
 0.910938E-013
 0.910938E-013
 0.910938E-013
 0.910938E-013
 0.910938E-013
 0.910938E-013
 0.910938E-013
 0.910938E-013
 0.910938E-013
 0.910938E-013
 0.910939E-013
 0.910939E-013
 0.910939E-013
 0.910939E-013
 0.910939E-013
 0.910939E-013
 0.910939E-013
 0.910939E-013
 0.910939E-013
 0.910939E-013
 0.910939E-013
 0.910939E-013
 0.910939E-013
 0.910939E-013
 0.910939E-013
 0.910939E-013
 0.910940E-013
 0.910940E-013
 0.910940E-013
 0.910940E-013
 0.910940E-013
 0.910940E-013
 0.910940E-013
 0.910940E-013
 0.910940E-013
 0.910941E-013
 0.910941E-013
 0.910941E-013