# vtk DataFile Version 3.0
Solution data
ASCII
DATASET STRUCTURED_GRID
DIMENSIONS 128 128 1
POINTS 16384  double
      0.000004      0.000004      0.000000
      0.000012      0.000004      0.000000
      0.000020      0.000004      0.000000
      0.000027      0.000004      0.000000
      0.000035      0.000004      0.000000
      0.000043      0.000004      0.000000
      0.000051      0.000004      0.000000
      0.000059      0.000004      0.000000
      0.000066      0.000004      0.000000
      0.000074      0.000004      0.000000
      0.000082      0.000004      0.000000
      0.000090      0.000004      0.000000
      0.000098      0.000004      0.000000
      0.000105      0.000004      0.000000
      0.000113      0.000004      0.000000
      0.000121      0.000004      0.000000
      0.000129      0.000004      0.000000
      0.000137      0.000004      0.000000
      0.000145      0.000004      0.000000
      0.000152      0.000004      0.000000
      0.000160      0.000004      0.000000
      0.000168      0.000004      0.000000
      0.000176      0.000004      0.000000
      0.000184      0.000004      0.000000
      0.000191      0.000004      0.000000
      0.000199      0.000004      0.000000
      0.000207      0.000004      0.000000
      0.000215      0.000004      0.000000
      0.000223      0.000004      0.000000
      0.000230      0.000004      0.000000
      0.000238      0.000004      0.000000
      0.000246      0.000004      0.000000
      0.000254      0.000004      0.000000
      0.000262      0.000004      0.000000
      0.000270      0.000004      0.000000
      0.000277      0.000004      0.000000
      0.000285      0.000004      0.000000
      0.000293      0.000004      0.000000
      0.000301      0.000004      0.000000
      0.000309      0.000004      0.000000
      0.000316      0.000004      0.000000
      0.000324      0.000004      0.000000
      0.000332      0.000004      0.000000
      0.000340      0.000004      0.000000
      0.000348      0.000004      0.000000
      0.000355      0.000004      0.000000
      0.000363      0.000004      0.000000
      0.000371      0.000004      0.000000
      0.000379      0.000004      0.000000
      0.000387      0.000004      0.000000
      0.000395      0.000004      0.000000
      0.000402      0.000004      0.000000
      0.000410      0.000004      0.000000
      0.000418      0.000004      0.000000
      0.000426      0.000004      0.000000
      0.000434      0.000004      0.000000
      0.000441      0.000004      0.000000
      0.000449      0.000004      0.000000
      0.000457      0.000004      0.000000
      0.000465      0.000004      0.000000
      0.000473      0.000004      0.000000
      0.000480      0.000004      0.000000
      0.000488      0.000004      0.000000
      0.000496      0.000004      0.000000
      0.000504      0.000004      0.000000
      0.000512      0.000004      0.000000
      0.000520      0.000004      0.000000
      0.000527      0.000004      0.000000
      0.000535      0.000004      0.000000
      0.000543      0.000004      0.000000
      0.000551      0.000004      0.000000
      0.000559      0.000004      0.000000
      0.000566      0.000004      0.000000
      0.000574      0.000004      0.000000
      0.000582      0.000004      0.000000
      0.000590      0.000004      0.000000
      0.000598      0.000004      0.000000
      0.000605      0.000004      0.000000
      0.000613      0.000004      0.000000
      0.000621      0.000004      0.000000
      0.000629      0.000004      0.000000
      0.000637      0.000004      0.000000
      0.000645      0.000004      0.000000
      0.000652      0.000004      0.000000
      0.000660      0.000004      0.000000
      0.000668      0.000004      0.000000
      0.000676      0.000004      0.000000
      0.000684      0.000004      0.000000
      0.000691      0.000004      0.000000
      0.000699      0.000004      0.000000
      0.000707      0.000004      0.000000
      0.000715      0.000004      0.000000
      0.000723      0.000004      0.000000
      0.000730      0.000004      0.000000
      0.000738      0.000004      0.000000
      0.000746      0.000004      0.000000
      0.000754      0.000004      0.000000
      0.000762      0.000004      0.000000
      0.000770      0.000004      0.000000
      0.000777      0.000004      0.000000
      0.000785      0.000004      0.000000
      0.000793      0.000004      0.000000
      0.000801      0.000004      0.000000
      0.000809      0.000004      0.000000
      0.000816      0.000004      0.000000
      0.000824      0.000004      0.000000
      0.000832      0.000004      0.000000
      0.000840      0.000004      0.000000
      0.000848      0.000004      0.000000
      0.000855      0.000004      0.000000
      0.000863      0.000004      0.000000
      0.000871      0.000004      0.000000
      0.000879      0.000004      0.000000
      0.000887      0.000004      0.000000
      0.000895      0.000004      0.000000
      0.000902      0.000004      0.000000
      0.000910      0.000004      0.000000
      0.000918      0.000004      0.000000
      0.000926      0.000004      0.000000
      0.000934      0.000004      0.000000
      0.000941      0.000004      0.000000
      0.000949      0.000004      0.000000
      0.000957      0.000004      0.000000
      0.000965      0.000004      0.000000
      0.000973      0.000004      0.000000
      0.000980      0.000004      0.000000
      0.000988      0.000004      0.000000
      0.000996      0.000004      0.000000
      0.000004      0.000012      0.000000
      0.000012      0.000012      0.000000
      0.000020      0.000012      0.000000
      0.000027      0.000012      0.000000
      0.000035      0.000012      0.000000
      0.000043      0.000012      0.000000
      0.000051      0.000012      0.000000
      0.000059      0.000012      0.000000
      0.000066      0.000012      0.000000
      0.000074      0.000012      0.000000
      0.000082      0.000012      0.000000
      0.000090      0.000012      0.000000
      0.000098      0.000012      0.000000
      0.000105      0.000012      0.000000
      0.000113      0.000012      0.000000
      0.000121      0.000012      0.000000
      0.000129      0.000012      0.000000
      0.000137      0.000012      0.000000
      0.000145      0.000012      0.000000
      0.000152      0.000012      0.000000
      0.000160      0.000012      0.000000
      0.000168      0.000012      0.000000
      0.000176      0.000012      0.000000
      0.000184      0.000012      0.000000
      0.000191      0.000012      0.000000
      0.000199      0.000012      0.000000
      0.000207      0.000012      0.000000
      0.000215      0.000012      0.000000
      0.000223      0.000012      0.000000
      0.000230      0.000012      0.000000
      0.000238      0.000012      0.000000
      0.000246      0.000012      0.000000
      0.000254      0.000012      0.000000
      0.000262      0.000012      0.000000
      0.000270      0.000012      0.000000
      0.000277      0.000012      0.000000
      0.000285      0.000012      0.000000
      0.000293      0.000012      0.000000
      0.000301      0.000012      0.000000
      0.000309      0.000012      0.000000
      0.000316      0.000012      0.000000
      0.000324      0.000012      0.000000
      0.000332      0.000012      0.000000
      0.000340      0.000012      0.000000
      0.000348      0.000012      0.000000
      0.000355      0.000012      0.000000
      0.000363      0.000012      0.000000
      0.000371      0.000012      0.000000
      0.000379      0.000012      0.000000
      0.000387      0.000012      0.000000
      0.000395      0.000012      0.000000
      0.000402      0.000012      0.000000
      0.000410      0.000012      0.000000
      0.000418      0.000012      0.000000
      0.000426      0.000012      0.000000
      0.000434      0.000012      0.000000
      0.000441      0.000012      0.000000
      0.000449      0.000012      0.000000
      0.000457      0.000012      0.000000
      0.000465      0.000012      0.000000
      0.000473      0.000012      0.000000
      0.000480      0.000012      0.000000
      0.000488      0.000012      0.000000
      0.000496      0.000012      0.000000
      0.000504      0.000012      0.000000
      0.000512      0.000012      0.000000
      0.000520      0.000012      0.000000
      0.000527      0.000012      0.000000
      0.000535      0.000012      0.000000
      0.000543      0.000012      0.000000
      0.000551      0.000012      0.000000
      0.000559      0.000012      0.000000
      0.000566      0.000012      0.000000
      0.000574      0.000012      0.000000
      0.000582      0.000012      0.000000
      0.000590      0.000012      0.000000
      0.000598      0.000012      0.000000
      0.000605      0.000012      0.000000
      0.000613      0.000012      0.000000
      0.000621      0.000012      0.000000
      0.000629      0.000012      0.000000
      0.000637      0.000012      0.000000
      0.000645      0.000012      0.000000
      0.000652      0.000012      0.000000
      0.000660      0.000012      0.000000
      0.000668      0.000012      0.000000
      0.000676      0.000012      0.000000
      0.000684      0.000012      0.000000
      0.000691      0.000012      0.000000
      0.000699      0.000012      0.000000
      0.000707      0.000012      0.000000
      0.000715      0.000012      0.000000
      0.000723      0.000012      0.000000
      0.000730      0.000012      0.000000
      0.000738      0.000012      0.000000
      0.000746      0.000012      0.000000
      0.000754      0.000012      0.000000
      0.000762      0.000012      0.000000
      0.000770      0.000012      0.000000
      0.000777      0.000012      0.000000
      0.000785      0.000012      0.000000
[...]
POINT_DATA 16384
SCALARS rhoe double
LOOKUP_TABLE default
 0.915789E-013
 0.912902E-013
 0.915263E-013
 0.915830E-013
 0.916897E-013
 0.917844E-013
 0.918812E-013
 0.919773E-013
 0.920733E-013
 0.921689E-013
 0.922643E-013
 0.923594E-013
 0.924541E-013
 0.925486E-013
 0.926427E-013
 0.927364E-013
 0.928297E-013
 0.929226E-013
 0.930151E-013
 0.931071E-013
 0.931986E-013
 0.932895E-013
 0.933798E-013
 0.934695E-013
 0.935585E-013
 0.936468E-013
 0.937342E-013
 0.938208E-013
 0.939065E-013
 0.939913E-013
 0.940749E-013
 0.941575E-013
 0.942389E-013
 0.943190E-013
 0.943977E-013
 0.944750E-013
 0.945509E-013
 0.946251E-013
 0.946976E-013
 0.947683E-013
 0.948371E-013
 0.949040E-013
 0.949689E-013
 0.950316E-013
 0.950920E-013
 0.951501E-013
 0.952058E-013
 0.952589E-013
 0.953094E-013
 0.953573E-013
 0.954024E-013
 0.954446E-013
 0.954839E-013
 0.955202E-013
 0.955534E-013
 0.955835E-013
 0.956104E-013
 0.956340E-013
 0.956544E-013
 0.956714E-013
 0.956851E-013
 0.956953E-013
 0.957022E-013
 0.957056E-013
 0.957056E-013
 0.957022E-013
 0.956953E-013
 0.956851E-013
 0.956714E-013
 0.956544E-013
 0.956340E-013
 0.956104E-013
 0.955835E-013
 0.955534E-013
 0.955202E-013
 0.954839E-013
 0.954446E-013
 0.954024E-013
 0.953573E-013
 0.953094E-013
 0.952589E-013
 0.952057E-013
 0.951501E-013
 0.950920E-013
 0.950315E-013
 0.949689E-013
 0.949040E-013
 0.948371E-013
 0.947683E-013
 0.946976E-013
 0.946250E-013
 0.945508E-013
 0.944750E-013
 0.943977E-013
 0.943190E-013
 0.942389E-013
 0.941575E-013
 0.940749E-013
 0.939913E-013
 0.939065E-013
 0.938208E-013
 0.937342E-013
 0.936467E-013
 0.935585E-013
 0.934695E-013
 0.933798E-013
 0.932895E-013
 0.931986E-013
 0.931071E-013
 0.930151E-013
 0.929226E-013
 0.928297E-013
 0.927364E-013
 0.926427E-013
 0.925486E-013
 0.924541E-013
 0.923594E-013
 0.922643E-013
 0.921689E-013
 0.920733E-013
 0.919773E-013
 0.918812E-013
 0.917844E-013
 0.916897E-013
 0.915830E-013
 0.915263E-013
 0.912902E-013
 0.915788E-013
 0.912902E-013
 0.908303E-013
 0.909555E-013
 0.908514E-013
 0.908179E-013
 0.907668E-013
 0.907196E-013
 0.906719E-013
 0.906244E-013
 0.905770E-013
 0.905298E-013
 0.904827E-013
 0.904357E-013
 0.903890E-013
 0.903424E-013
 0.902960E-013
 0.902498E-013
 0.902038E-013
 0.901580E-013
 0.901125E-013
 0.900672E-013
 0.900222E-013
 0.899775E-013
 0.899331E-013
 0.898891E-013
 0.898454E-013
 0.898022E-013
 0.897593E-013
 0.897169E-013
 0.896750E-013
 0.896336E-013
 0.895927E-013
 0.895525E-013
 0.895128E-013
 0.894739E-013
 0.894356E-013
 0.893981E-013
 0.893614E-013
 0.893255E-013
 0.892905E-013
 0.892564E-013
 0.892233E-013
 0.891913E-013
 0.891602E-013
 0.891303E-013
 0.891016E-013
 0.890741E-013
 0.890478E-013
 0.890227E-013
 0.889991E-013
 0.889768E-013
 0.889559E-013
 0.889364E-013
 0.889185E-013
 0.889020E-013
 0.888872E-013
 0.888738E-013
 0.888621E-013
 0.888521E-013
 0.888436E-013
 0.888369E-013
 0.888318E-013
 0.888284E-013
 0.888267E-013
 0.888267E-013
 0.888284E-013
 0.888318E-013
 0.888369E-013
 0.888437E-013
 0.888521E-013
 0.888622E-013
 0.888739E-013
 0.888872E-013
 0.889021E-013
 0.889185E-013
 0.889364E-013
 0.889559E-013
 0.889768E-013
 0.889991E-013
 0.890228E-013
 0.890478E-013
 0.890741E-013
 0.891016E-013
 0.891304E-013
 0.891603E-013
 0.891913E-013
 0.892234E-013
 0.892565E-013
 0.892905E-013
 0.893255E-013
 0.893614E-013
 0.893981E-013
 0.894356E-013
 0.894739E-013
 0.895129E-013
 0.895525E-013
 0.895928E-013
 0.896336E-013
 0.896750E-013
 0.897169E-013
 0.897593E-013
 0.898022E-013
 0.898455E-013
 0.898891E-013
 0.899332E-013
 0.899776E-013
 0.900223E-013
 0.900673E-013
 0.901125E-013
 0.901581E-013
 0.902038E-013
 0.902498E-013
 0.902960E-013
 0.903424E-013
 0.903890E-013
 0.904358E-013
 0.904827E-013
 0.905298E-013
 0.905770E-013
 0.906244E-013
 0.906719E-013
 0.907196E-013
 0.907668E-013
 0.908179E-013
 0.908514E-013
 0.909555E-013
 0.908303E-013
 0.912902E-013
 0.915263E-013
 0.909555E-013
 0.912187E-013
 0.911566E-013
 0.911945E-013
 0.912072E-013
 0.912252E-013
 0.912421E-013
 0.912592E-013
 0.912762E-013
 0.912931E-013
 0.913100E-013
 0.913269E-013
 0.913436E-013
 0.913604E-013
 0.913770E-013
 0.913936E-013
 0.914101E-013
 0.914265E-013
 0.914428E-013
 0.914590E-013
 0.914752E-013
 0.914912E-013
 0.915071E-013
 0.915229E-013
 0.915386E-013
 0.915541E-013
 0.915694E-013
 0.915846E-013
 0.915997E-013
 0.916145E-013
 0.916291E-013
 0.916436E-013
 0.916578E-013
 0.916717E-013
 0.916855E-013
 0.916989E-013
 0.917121E-013
 0.917249E-013
 0.917375E-013
 0.917497E-013
 0.917615E-013
 0.917730E-013
 0.917841E-013
 0.917948E-013
 0.918052E-013
 0.918150E-013
 0.918244E-013
 0.918334E-013
 0.918419E-013
 0.918499E-013
 0.918574E-013
 0.918643E-013
 0.918708E-013
 0.918767E-013
 0.918820E-013
 0.918868E-013
 0.918910E-013
 0.918946E-013
 0.918976E-013
 0.919000E-013
 0.919018E-013
 0.919030E-013
 0.919037E-013
 0.919037E-013
 0.919030E-013
 0.919018E-013
 0.919000E-013
 0.918976E-013
 0.918946E-013
 0.918910E-013
 0.918868E-013
 0.918820E-013
 0.918767E-013
 0.918708E-013
 0.918643E-013
 0.918574E-013
 0.918499E-013
 0.918419E-013
 0.918334E-013
 0.918244E-013
 0.918150E-013
 0.918051E-013
 0.917948E-013
 0.917841E-013
 0.917730E-013
 0.917615E-013
 0.917496E-013
 0.917374E-013
 0.917249E-013
 0.917120E-013
 0.916989E-013
 0.916854E-013
 0.916717E-013
 0.916578E-013
 0.916436E-013
 0.916291E-013
 0.916145E-013
 0.915996E-013
 0.915846E-013
 0.915694E-013
 0.915541E-013
 0.915385E-013
 0.915229E-013
 0.915071E-013
 0.914912E-013
 0.914752E-013
 0.914590E-013
 0.914428E-013
 0.914265E-013
 0.914100E-013
 0.913936E-013
 0.913770E-013
 0.913603E-013
 0.913436E-013
 0.913269E-013
 0.913100E-013
 0.912931E-013
 0.912762E-013
 0.912592E-013
 0.912421E-013
 0.912252E-013
 0.912072E-013
 0.911945E-013
 0.911565E-013
 0.912187E-013
 0.909555E-013
 0.915263E-013
 0.915830E-013
 0.908514E-013
 0.911566E-013
 0.910505E-013
 0.910722E-013
 0.910616E-013
 0.910579E-013
 0.910530E-013
 0.910482E-013
 0.910435E-013
 0.910388E-013
 0.910341E-013
 0.910294E-013
 0.910247E-013
 0.910200E-013
 0.910154E-013
 0.910108E-013
 0.910062E-013
 0.910016E-013
 0.909971E-013
 0.909925E-013
 0.909881E-013
 0.909836E-013
 0.909792E-013
 0.909748E-013
 0.909704E-013
 0.909661E-013
 0.909618E-013
 0.909576E-013
 0.909534E-013
 0.909493E-013
 0.909452E-013
 0.909412E-013
 0.909373E-013
 0.909334E-013
 0.909296E-013
 0.909258E-013
 0.909222E-013
 0.909186E-013
 0.909151E-013
 0.909117E-013
 0.909085E-013
 0.909053E-013
 0.909022E-013
 0.908992E-013
 0.908963E-013
 0.908936E-013
 0.908910E-013
 0.908885E-013
 0.908862E-013
 0.908839E-013
 0.908819E-013
 0.908799E-013
 0.908782E-013
 0.908765E-013
 0.908750E-013
 0.908737E-013
 0.908726E-013
 0.908716E-013
 0.908707E-013
 0.908701E-013
 0.908696E-013
 0.908692E-013
 0.908690E-013
 0.908690E-013
 0.908692E-013
 0.908696E-013
 0.908701E-013
 0.908707E-013
 0.908716E-013
 0.908726E-013
 0.908737E-013
 0.908750E-013
 0.908765E-013
 0.908782E-013
 0.908799E-013
 0.908819E-013
 0.908839E-013
 0.908862E-013
 0.908885E-013
 0.908910E-013
 0.908936E-013
 0.908964E-013
 0.908992E-013
 0.909022E-013
 0.909053E-013
 0.909085E-013
 0.909118E-013
 0.909151E-013
 0.909186E-013
 0.909222E-013
 0.909259E-013
 0.909296E-013
 0.909334E-013
 0.909373E-013
 0.909412E-013
 0.909452E-013
 0.909493E-013
 0.909534E-013
 0.909576E-013
 0.909618E-013
 0.909661E-013
 0.909704E-013
 0.909748E-013
 0.909792E-013
 0.909836E-013
 0.909881E-013
 0.909926E-013
 0.909971E-013
 0.910016E-013
 0.910062E-013
 0.910108E-013
 0.910154E-013
 0.910200E-013
 0.910247E-013
 0.910294E-013
 0.910341E-013
 0.910388E-013
 0.910435E-013
 0.910482E-013
 0.910530E-013
 0.910579E-013
 0.910616E-013
 0.910722E-013
 0.910505E-013
 0.911565E-013
 0.908514E-013
 0.915830E-013
 0.916897E-013
 0.908179E-013
 0.911945E-013
 0.910722E-013
 0.911057E-013
 0.910997E-013
 0.911022E-013
 0.911030E-013
 0.911041E-013
 0.911052E-013
 0.911063E-013
 0.911074E-013
 0.911084E-013
 0.911095E-013
 0.911105E-013
 0.911116E-013
 0.911127E-013
 0.911137E-013
 0.911147E-013
 0.911158E-013
 0.911168E-013
 0.911178E-013
 0.911188E-013
 0.911198E-013
 0.911208E-013
 0.911218E-013
 0.911228E-013
 0.911238E-013
 0.911248E-013
 0.911257E-013
 0.911266E-013
 0.911276E-013
 0.911285E-013
 0.911294E-013
 0.911303E-013
 0.911311E-013
 0.911320E-013
 0.911328E-013
 0.911336E-013
 0.911344E-013
 0.911352E-013
 0.911360E-013
 0.911367E-013
 0.911374E-013
 0.911381E-013
 0.911387E-013
 0.911394E-013
 0.911400E-013
 0.911405E-013
 0.911411E-013
 0.911416E-013
 0.911421E-013
 0.911425E-013
 0.911429E-013
 0.911433E-013
 0.911436E-013
 0.911439E-013
 0.911442E-013
 0.911444E-013
 0.911446E-013
 0.911448E-013
 0.911449E-013
 0.911450E-013
 0.911450E-013
 0.911450E-013
 0.911450E-013
 0.911449E-013
 0.911448E-013
 0.911446E-013
 0.911444E-013
 0.911442E-013
 0.911439E-013
 0.911436E-013
 0.911433E-013
 0.911429E-013
 0.911425E-013
 0.911421E-013
 0.911416E-013
 0.911411E-013
 0.911405E-013
 0.911400E-013
 0.911394E-013
 0.911387E-013
 0.911381E-013
 0.911374E-013
 0.911367E-013
 0.911360E-013
 0.911352E-013
 0.911344E-013
 0.911336E-013
 0.911328E-013
 0.911320E-013
 0.911311E-013
 0.911303E-013
 0.911294E-013
 0.911285E-013
 0.911276E-013
 0.911266E-013
 0.911257E-013
 0.911248E-013
 0.911238E-013
 0.911228E-013
 0.911218E-013
 0.911208E-013
 0.911198E-013
 0.911188E-013
 0.911178E-013
 0.911168E-013
 0.911158E-013
 0.911147E-013
 0.911137E-013
 0.911127E-013
 0.911116E-013
 0.911105E-013
 0.911095E-013
 0.911084E-013
 0.911074E-013
 0.911063E-013
 0.911052E-013
 0.911041E-013
 0.911030E-013
 0.911022E-013
 0.910997E-013
 0.911057E-013
 0.910722E-013
 0.911945E-013
 0.908179E-013
 0.916897E-013
 0.917844E-013
 0.907668E-013
 0.912072E-013
 0.910616E-013
 0.910997E-013
 0.910912E-013
 0.910925E-013
 0.910920E-013
 0.910919E-013
 0.910917E-013
 0.910915E-013
 0.910912E-013
 0.910910E-013
 0.910908E-013
 0.910906E-013
 0.910904E-013
 0.910902E-013
 0.910900E-013
 0.910898E-013
 0.910896E-013
 0.910894E-013
 0.910893E-013
 0.910891E-013
 0.910889E-013
 0.910887E-013
 0.910885E-013
 0.910883E-013
 0.910881E-013
 0.910879E-013
 0.910878E-013
 0.910876E-013
 0.910874E-013
 0.910872E-013
 0.910871E-013
 0.910869E-013
 0.910867E-013
 0.910866E-013
 0.910864E-013
 0.910863E-013
 0.910861E-013
 0.910860E-013
 0.910859E-013
 0.910857E-013
 0.910856E-013
 0.910855E-013
 0.910854E-013
 0.910852E-013
 0.910851E-013
 0.910850E-013
 0.910849E-013
 0.910848E-013
 0.910848E-013
 0.910847E-013
 0.910846E-013
 0.910845E-013
 0.910845E-013
 0.910844E-013
 0.910844E-013
 0.910843E-013
 0.910843E-013
 0.910843E-013
 0.910843E-013
 0.910843E-013
 0.910842E-013
 0.910842E-013
 0.910843E-013
 0.910843E-013
 0.910843E-013
 0.910843E-013
 0.910843E-013
 0.910844E-013
 0.910844E-013
 0.910845E-013
 0.910845E-013
 0.910846E-013
 0.910847E-013
 0.910848E-013
 0.910848E-013
 0.910849E-013
 0.910850E-013
 0.910851E-013
 0.910852E-013
 0.910854E-013
 0.910855E-013
 0.910856E-013
 0.910857E-013
 0.910859E-013
 0.910860E-013
 0.910861E-013
 0.910863E-013
 0.910864E-013
 0.910866E-013
 0.910867E-013
 0.910869E-013
 0.910871E-013
 0.910872E-013
 0.910874E-013
 0.910876E-013
 0.910878E-013
 0.910879E-013
 0.910881E-013
 0.910883E-013
 0.910885E-013
 0.910887E-013
 0.910889E-013
 0.910891E-013
 0.910893E-013
 0.910894E-013
 0.910896E-013
 0.910898E-013
 0.910900E-013
 0.910902E-013
 0.910904E-013
 0.910906E-013
 0.910908E-013
 0.910910E-013
 0.910912E-013
 0.910915E-013
 0.910917E-013
 0.910919E-013
 0.910920E-013
 0.910925E-013
 0.910912E-013
 0.910997E-013
 0.910616E-013
 0.912072E-013
 0.907669E-013
 0.917844E-013
 0.918812E-013
 0.907196E-013
 0.912252E-013
 0.910579E-013
 0.911022E-013
 0.910925E-013
 0.910943E-013
 0.910941E-013
 0.910942E-013
 0.910942E-013
 0.910942E-013
 0.910943E-013
 0.910943E-013
 0.910943E-013
 0.910944E-013
 0.910944E-013
 0.910944E-013
 0.910945E-013
 0.910945E-013
 0.910945E-013
 0.910946E-013
 0.910946E-013
 0.910946E-013
 0.910947E-013
 0.910947E-013
 0.910947E-013
 0.910948E-013
 0.910948E-013
 0.910948E-013
 0.910949E-013
 0.910949E-013
 0.910949E-013
 0.910950E-013
 0.910950E-013
 0.910950E-013
 0.910951E-013
 0.910951E-013
 0.910951E-013
 0.910952E-013
 0.910952E-013
 0.910952E-013
 0.910953E-013
 0.910953E-013
 0.910953E-013
 0.910953E-013
 0.910954E-013
 0.910954E-013
 0.910954E-013
 0.910955E-013
 0.910955E-013
 0.910955E-013
 0.910955E-013
 0.910955E-013
 0.910956E-013
 0.910956E-013
 0.910956E-013
 0.910956E-013
 0.910956E-013
 0.910956E-013
 0.910956E-013
 0.910956E-013
 0.910957E-013
 0.910957E-013
 0.910957E-013
 0.910957E-013
 0.910957E-013
 0.910957E-013
 0.910956E-013
 0.910956E-013
 0.910956E-013
 0.910956E-013
 0.910956E-013
 0.910956E-013
 0.910956E-013
 0.910956E-013
 0.910955E-013
 0.910955E-013
 0.910955E-013
 0.910955E-013
 0.910955E-013
 0.910954E-013
 0.910954E-013
 0.910954E-013
 0.910953E-013
 0.910953E-013
 0.910953E-013
 0.910953E-013
 0.910952E-013
 0.910952E-013
 0.910952E-013
 0.910951E-013
 0.910951E-013
 0.910951E-013
 0.910950E-013
 0.910950E-013
 0.910950E-013
 0.910949E-013
 0.910949E-013
 0.910949E-013
 0.910948E-013
 0.910948E-013
 0.910948E-013
 0.910947E-013
 0.910947E-013
 0.910947E-013
 0.910946E-013
 0.910946E-013
 0.910946E-013
 0.910945E-013
 0.910945E-013
 0.910945E-013
 0.910944E-013
 0.910944E-013
 0.910944E-013
 0.910943E-013
 0.910943E-013
 0.910943E-013
 0.910942E-013
 0.910942E-013
 0.910942E-013
 0.910941E-013
 0.910943E-013
 0.910925E-013
 0.911022E-013
 0.910579E-013
 0.912251E-013
 0.907196E-013
 0.918812E-013
 0.919773E-013
 0.906719E-013
 0.912421E-013
 0.910530E-013
 0.911030E-013
 0.910920E-013
 0.910941E-013
 0.910937E-013
 0.910938E-013
 0.910938E-013
 0.910938E-013
 0.910938E-013
 0.910938E-013
 0.910938E-013
 0.910938E-013
 0.910938E-013
 0.910937E-013
 0.910937E-013
 0.910937E-013
 0.910937E-013
 0.910937E-013
 0.910937E-013
 0.910937E-013
 0.910937E-013
 0.910937E-013
 0.910937E-013
 0.910937E-013
 0.910937E-013
 0.910937E-013
 0.910937E-013
 0.910937E-013
 0.910937E-013
 0.910937E-013
 0.910937E-013
 0.910937E-013
 0.910937E-013
 0.910937E-013
 0.910937E-013
 0.910937E-013
 0.910937E-013
 0.910937E-013
 0.910937E-013
 0.910938E-013
 0.910938E-013
 0.910938E-013
 0.910938E-013
 0.910938E-013
 0.910938E-013
 0.910938E-013
 0.910938E-013
 0.910938E-013
 0.910938E-013
 0.910938E-013
 0.910938E-013
 0.910938E-013
 0.910938E-013
 0.910938E-013
 0.910938E-013
 0.910938E-013
 0.910938E-013
 0.910938E-013
 0.910938E-013
 0.910938E-013
 0.910938E-013
 0.910938E-013
 0.910938E-013
 0.910938E-013
 0.910938E-013
 0.910938E-013
 0.910938E-013
 0.910938E-013
 0.910938E-013
 0.910938E-013
 0.910938E-013
 0.910938E-013
 0.910938E-013
 0.910938E-013
 0.910938E-013
 0.910938E-013
 0.910938E-013
 0.910938E-013
 0.910938E-013
 0.910938E-013
 0.910938E-013
 0.910938E-013
 0.910938E-013
 0.910937E-013
 0.910937E-013
 0.910937E-013
 0.910937E-013
 0.910937E-013
 0.910937E-013
 0.910937E-013
 0.910937E-013
 0.910937E-013
 0.910937E-013
 0.910937E-013
 0.910937E-013
 0.910937E-013
 0.910937E-013
 0.910937E-013
 0.910937E-013
 0.910937E-013
 0.910937E-013
 0.910937E-013
 0.910937E-013
 0.910937E-013
 0.910937E-013
 0.910937E-013
 0.910937E-013
 0.910937E-013
 0.910938E-013
 0.910938E-013
 0.910938E-013
 0.910938E-013
 0.910938E-013
 0.910938E-013
 0.910938E-013
 0.910938E-013
 0.910938E-013
 0.910938E-013
 0.910941E-013
 0.910920E-013
 0.911030E-013
 0.910530E-013
 0.912421E-013
 0.906719E-013
 0.919773E-013
 0.920733E-013
 0.906244E-013
 0.912592E-013
 0.910482E-013
 0.911041E-013
 0.910919E-013
 0.910942E-013
 0.910938E-013
 0.910938E-013
 0.910938E-013
 0.910938E-013
 0.910938E-013
 0.910938E-013
 0.910938E-013
 0.910938E-013
 0.910938E-013
 0.910938E-013
 0.910939E-013
 0.910939E-013
 0.910939E-013
 0.910939E-013
 0.910939E-013
 0.910939E-013
 0.910939E-013
 0.910939E-013
 0.910939E-013
 0.910939E-013
 0.910939E-013
 0.910939E-013
 0.910939E-013
 0.910939E-013
 0.910939E-013
 0.910939E-013
 0.910939E-013
 0.910939E-013
 0.910939E-013
 0.910939E-013
 0.910940E-013
 0.910940E-013
 0.910940E-013
 0.910940E-013
 0.910940E-013
 0.910940E-013
 0.910940E-013
 0.910940E-013
 0.910940E-013
 0.910940E-013
 0.910941E-013
 0.910941E-013
 0.910941E-013
 0.910941E-013
 0.910941E-013
 0.910941E-013
 0.910941E-013
 0.910941E-013
 0.910941E-013
 0.910941E-013
 0.910941E-013
 0.910941E-013
 0.910942E-013
 0.910942E-013
 0.910942E-013
 0.910942E-013
 0.910942E-013
 0.910942E-013
 0.910942E-013
 0.910942E-013
 0.910942E-013
 0.910942E-013
 0.910941E-013
 0.910941E-013
 0.910941E-013
 0.910941E-013
 0.910941E-013
 0.910941E-013
 0.910941E-013
 0.910941E-013
 0.910941E-013
 0.910941E-013
 0.910941E-013
 0.910941E-013
 0.910940E-013
 0.910940E-013
 0.910940E-013
 0.910940E-013
 0.910940E-013
 0.910940E-013
 0.910940E-013
 0.910940E-013
 0.910940E-013
 0.910940E-013
 0.910939E-013
 0.910939E-013
 0.910939E-013
 0.910939E-013
 0.910939E-013
 0.910939E-013
 0.910939E-013
 0.910939E-013
 0.910939E-013
 0.910939E-013
 0.910939E-013
 0.910939E-013
 0.910939E-013
 0.910939E-013
 0.910939E-013
 0.910939E-013
 0.910939E-013
 0.910939E-013
 0.910939E-013
 0.910939E-013
 0.910938E-013
 0.910938E-013
 0.910938E-013
 0.910938E-013
 0.910938E-013
 0.910938E-013
 0.910938E-013
 0.910938E-013
 0.910938E-013
 0.910938E-013
 0.910942E-013
 0.910919E-013
 0.911041E-013
 0.910482E-013
 0.912592E-013
 0.906244E-013
 0.920733E-013
 0.921689E-013
 0.905770E-013
 0.912762E-013
 0.910435E-013
 0.911052E-013
 0.910917E-013
 0.910942E-013
 0.910938E-013
 0.910938E-013
 0.910938E-013
 0.910938E-013
 0.910938E-013
 0.910938E-013
 0.910938E-013
 0.910938E-013
 0.910938E-013
 0.910938E-013
 0.910938E-013
 0.910938E-013
 0.910938E-013
 0.910938E-013
 0.910938E-013
 0.910938E-013
 0.910939E-013
 0.910939E-013
 0.910939E-013
 0.910939E-013
 0.910939E-013
 0.910939E-013
 0.910939E-013
 0.910939E-013
 0.910939E-013
 0.910939E-013
 0.910939E-013
 0.910939E-013
 0.910939E-013
 0.910939E-013
 0.910939E-013
 0.910940E-013
 0.910940E-013
 0.910940E-013
 0.910940E-013
 0.910940E-013
 0.910940E-013
 0.910940E-013
 0.910940E-013
 0.910940E-013
 0.910941E-013
 0.910941E-013
 0.910941E-013
 0.910941E-013
 0.910941E-013
 0.910941E-013
 0.910941E-013
 0.910941E-013
 0.910941E-013
 0.910942E-013
 0.910942E-013
 0.910942E-013
 0.910942E-013
 0.910942E-013
 0.910942E-013
 0.910942E-013
 0.910942E-013
 0.910942E-013
 0.910942E-013
 0.910942E-013
 0.910942E-013
 0.910942E-013
 0.910942E-013
 0.910942E-013
 0.910942E-013
 0.910941E-013
 0.910941E-013
 0.910941E-013
 0.910941E-013
 0.910941E-013
 0.910941E-013
 0.910941E-013
 0.910941E-013
 0.910941E-013
 0.910940E-013
 0.910940E-013
 0.910940E-013
 0.910940E-013
 0.910940E-013
 0.910940E-013
 0.910940E-013
 0.910940E-013
 0.910940E-013
 0.910939E-013
 0.910939E-013
 0.910939E-013
 0.910939E-013
 0.910939E-013
 0.910939E-013
 0.910939E-013
 0.910939E-013
 0.910939E-013
 0.910939E-013
 0.910939E-013
 0.910939E-013
 0.910939E-013
 0.910939E-013
 0.910939E-013
 0.910939E-013
 0.910938E-013
 0.910938E-013
 0.910938E-013
 0.910938E-013
 0.910938E-013
 0.910938E-013
 0.910938E-013
 0.910938E-013
 0.910938E-013
 0.910938E-013
 0.910938E-013
 0.910938E-013
 0.910938E-013
 0.910938E-013
 0.910938E-013
 0.910942E-013
 0.910917E-013
 0.911052E-013
 0.910435E-013
 0.912762E-013
 0.905770E-013
 0.921689E-013
 0.922643E-013
 0.905298E-013
 0.912931E-013
 0.910388E-013
 0.911063E-013
 0.910915E-013
 0.910942E-013
 0.910938E-013
 0.910938E-013
 0.910938E-013
 0.910938E-013
 0.910938E-013
 0.910938E-013
 0.910938E-013
 0.910938E-013
 0.910938E-013
 0.910938E-013
 0.910938E-013
 0.910938E-013
 0.910938E-013
 0.910938E-013
 0.910939E-013
 0.910939E-013
 0.910939E-013
 0.910939E-013
 0.910939E-013
 0.910939E-013
 0.910939E-013
 0.910939E-013
 0.910939E-013
 0.910939E-013
 0.910939E-013
 0.910939E-013
 0.910939E-013
 0.910939E-013
 0.910939E-013
 0.910940E-013
 0.910940E-013
 0.910940E-013
 0.910940E-013
 0.910940E-013
 0.910940E-013
 0.910940E-013
 0.910940E-013
 0.910941E-013
 0.910941E-013
 0.910941E-013
 0.910941E-013
 0.910941E-013