# vtk DataFile Version 3.0
Solution data
ASCII
DATASET STRUCTURED_GRID
DIMENSIONS 128 128 1
POINTS 16384  double
      0.000004      0.000004      0.000000
      0.000012      0.000004      0.000000
      0.000020      0.000004      0.000000
      0.000027      0.000004      0.000000
      0.000035      0.000004      0.000000
      0.000043      0.000004      0.000000
      0.000051      0.000004      0.000000
      0.000059      0.000004      0.000000
      0.000066      0.000004      0.000000
      0.000074      0.000004      0.000000
      0.000082      0.000004      0.000000
      0.000090      0.000004      0.000000
      0.000098      0.000004      0.000000
      0.000105      0.000004      0.000000
      0.000113      0.000004      0.000000
      0.000121      0.000004      0.000000
      0.000129      0.000004      0.000000
      0.000137      0.000004      0.000000
      0.000145      0.000004      0.000000
      0.000152      0.000004      0.000000
      0.000160      0.000004      0.000000
      0.000168      0.000004      0.000000
      0.000176      0.000004      0.000000
      0.000184      0.000004      0.000000
      0.000191      0.000004      0.000000
      0.000199      0.000004      0.000000
      0.000207      0.000004      0.000000
      0.000215      0.000004      0.000000
      0.000223      0.000004      0.000000
      0.000230      0.000004      0.000000
      0.000238      0.000004      0.000000
      0.000246      0.000004      0.000000
      0.000254      0.000004      0.000000
      0.000262      0.000004      0.000000
      0.000270      0.000004      0.000000
      0.000277      0.000004      0.000000
      0.000285      0.000004      0.000000
      0.000293      0.000004      0.000000
      0.000301      0.000004      0.000000
      0.000309      0.000004      0.000000
      0.000316      0.000004      0.000000
      0.000324      0.000004      0.000000
      0.000332      0.000004      0.000000
      0.000340      0.000004      0.000000
      0.000348      0.000004      0.000000
      0.000355      0.000004      0.000000
      0.000363      0.000004      0.000000
      0.000371      0.000004      0.000000
      0.000379      0.000004      0.000000
      0.000387      0.000004      0.000000
      0.000395      0.000004      0.000000
      0.000402      0.000004      0.000000
      0.000410      0.000004      0.000000
      0.000418      0.000004      0.000000
      0.000426      0.000004      0.000000
      0.000434      0.000004      0.000000
      0.000441      0.000004      0.000000
      0.000449      0.000004      0.000000
      0.000457      0.000004      0.000000
      0.000465      0.000004      0.000000
      0.000473      0.000004      0.000000
      0.000480      0.000004      0.000000
      0.000488      0.000004      0.000000
      0.000496      0.000004      0.000000
      0.000504      0.000004      0.000000
      0.000512      0.000004      0.000000
      0.000520      0.000004      0.000000
      0.000527      0.000004      0.000000
      0.000535      0.000004      0.000000
      0.000543      0.000004      0.000000
      0.000551      0.000004      0.000000
      0.000559      0.000004      0.000000
      0.000566      0.000004      0.000000
      0.000574      0.000004      0.000000
      0.000582      0.000004      0.000000
      0.000590      0.000004      0.000000
      0.000598      0.000004      0.000000
      0.000605      0.000004      0.000000
      0.000613      0.000004      0.000000
      0.000621      0.000004      0.000000
      0.000629      0.000004      0.000000
      0.000637      0.000004      0.000000
      0.000645      0.000004      0.000000
      0.000652      0.000004      0.000000
      0.000660      0.000004      0.000000
      0.000668      0.000004      0.000000
      0.000676      0.000004      0.000000
      0.000684      0.000004      0.000000
      0.000691      0.000004      0.000000
      0.000699      0.000004      0.000000
      0.000707      0.000004      0.000000
      0.000715      0.000004      0.000000
      0.000723      0.000004      0.000000
      0.000730      0.000004      0.000000
      0.000738      0.000004      0.000000
      0.000746      0.000004      0.000000
      0.000754      0.000004      0.000000
      0.000762      0.000004      0.000000
      0.000770      0.000004      0.000000
      0.000777      0.000004      0.000000
      0.000785      0.000004      0.000000
      0.000793      0.000004      0.000000
      0.000801      0.000004      0.000000
      0.000809      0.000004      0.000000
      0.000816      0.000004      0.000000
      0.000824      0.000004      0.000000
      0.000832      0.000004      0.000000
      0.000840      0.000004      0.000000
      0.000848      0.000004      0.000000
      0.000855      0.000004      0.000000
      0.000863      0.000004      0.000000
      0.000871      0.000004      0.000000
      0.000879      0.000004      0.000000
      0.000887      0.000004      0.000000
      0.000895      0.000004      0.000000
      0.000902      0.000004      0.000000
      0.000910      0.000004      0.000000
      0.000918      0.000004      0.000000
      0.000926      0.000004      0.000000
      0.000934      0.000004      0.000000
      0.000941      0.000004      0.000000
      0.000949      0.000004      0.000000
      0.000957      0.000004      0.000000
      0.000965      0.000004      0.000000
      0.000973      0.000004      0.000000
      0.000980      0.000004      0.000000
      0.000988      0.000004      0.000000
      0.000996      0.000004      0.000000
      0.000004      0.000012      0.000000
      0.000012      0.000012      0.000000
      0.000020      0.000012      0.000000
      0.000027      0.000012      0.000000
      0.000035      0.000012      0.000000
      0.000043      0.000012      0.000000
      0.000051      0.000012      0.000000
      0.000059      0.000012      0.000000
      0.000066      0.000012      0.000000
      0.000074      0.000012      0.000000
      0.000082      0.000012      0.000000
      0.000090      0.000012      0.000000
      0.000098      0.000012      0.000000
      0.000105      0.000012      0.000000
      0.000113      0.000012      0.000000
      0.000121      0.000012      0.000000
      0.000129      0.000012      0.000000
      0.000137      0.000012      0.000000
      0.000145      0.000012      0.000000
      0.000152      0.000012      0.000000
      0.000160      0.000012      0.000000
      0.000168      0.000012      0.000000
      0.000176      0.000012      0.000000
      0.000184      0.000012      0.000000
      0.000191      0.000012      0.000000
      0.000199      0.000012      0.000000
      0.000207      0.000012      0.000000
      0.000215      0.000012      0.000000
      0.000223      0.000012      0.000000
      0.000230      0.000012      0.000000
      0.000238      0.000012      0.000000
      0.000246      0.000012      0.000000
      0.000254      0.000012      0.000000
      0.000262      0.000012      0.000000
      0.000270      0.000012      0.000000
      0.000277      0.000012      0.000000
      0.000285      0.000012      0.000000
      0.000293      0.000012      0.000000
      0.000301      0.000012      0.000000
      0.000309      0.000012      0.000000
      0.000316      0.000012      0.000000
      0.000324      0.000012      0.000000
      0.000332      0.000012      0.000000
      0.000340      0.000012      0.000000
      0.000348      0.000012      0.000000
      0.000355      0.000012      0.000000
      0.000363      0.000012      0.000000
      0.000371      0.000012      0.000000
      0.000379      0.000012      0.000000
      0.000387      0.000012      0.000000
      0.000395      0.000012      0.000000
      0.000402      0.000012      0.000000
      0.000410      0.000012      0.000000
      0.000418      0.000012      0.000000
      0.000426      0.000012      0.000000
      0.000434      0.000012      0.000000
      0.000441      0.000012      0.000000
      0.000449      0.000012      0.000000
      0.000457      0.000012      0.000000
      0.000465      0.000012      0.000000
      0.000473      0.000012      0.000000
      0.000480      0.000012      0.000000
      0.000488      0.000012      0.000000
      0.000496      0.000012      0.000000
      0.000504      0.000012      0.000000
      0.000512      0.000012      0.000000
      0.000520      0.000012      0.000000
      0.000527      0.000012      0.000000
      0.000535      0.000012      0.000000
      0.000543      0.000012      0.000000
      0.000551      0.000012      0.000000
      0.000559      0.000012      0.000000
      0.000566      0.000012      0.000000
      0.000574      0.000012      0.000000
      0.000582      0.000012      0.000000
      0.000590      0.000012      0.000000
      0.000598      0.000012      0.000000
      0.000605      0.000012      0.000000
      0.000613      0.000012      0.000000
      0.000621      0.000012      0.000000
      0.000629      0.000012      0.000000
      0.000637      0.000012      0.000000
      0.000645      0.000012      0.000000
      0.000652      0.000012      0.000000
      0.000660      0.000012      0.000000
      0.000668      0.000012      0.000000
      0.000676      0.000012      0.000000
      0.000684      0.000012      0.000000
      0.000691      0.000012      0.000000
      0.000699      0.000012      0.000000
      0.000707      0.000012      0.000000
      0.000715      0.000012      0.000000
      0.000723      0.000012      0.000000
      0.000730      0.000012      0.000000
      0.000738      0.000012      0.000000
      0.000746      0.000012      0.000000
      0.000754      0.000012      0.000000
      0.000762      0.000012      0.000000
      0.000770      0.000012      0.000000
      0.000777      0.000012      0.000000
      0.000785      0.000012      0.000000
[...]
POINT_DATA 16384
SCALARS rhoe double
LOOKUP_TABLE default
 0.916233E-013
 0.912593E-013
 0.915382E-013
 0.915628E-013
 0.916718E-013
 0.917565E-013
 0.918470E-013
 0.919359E-013
 0.920248E-013
 0.921133E-013
 0.922017E-013
 0.922897E-013
 0.923774E-013
 0.924649E-013
 0.925520E-013
 0.926387E-013
 0.927250E-013
 0.928110E-013
 0.928965E-013
 0.929816E-013
 0.930661E-013
 0.931502E-013
 0.932336E-013
 0.933165E-013
 0.933987E-013
 0.934802E-013
 0.935610E-013
 0.936409E-013
 0.937200E-013
 0.937982E-013
 0.938754E-013
 0.939515E-013
 0.940265E-013
 0.941004E-013
 0.941730E-013
 0.942442E-013
 0.943141E-013
 0.943824E-013
 0.944492E-013
 0.945143E-013
 0.945777E-013
 0.946392E-013
 0.946989E-013
 0.947565E-013
 0.948121E-013
 0.948656E-013
 0.949167E-013
 0.949656E-013
 0.950121E-013
 0.950560E-013
 0.950974E-013
 0.951362E-013
 0.951723E-013
 0.952057E-013
 0.952362E-013
 0.952638E-013
 0.952885E-013
 0.953102E-013
 0.953289E-013
 0.953445E-013
 0.953571E-013
 0.953665E-013
 0.953728E-013
 0.953759E-013
 0.953759E-013
 0.953728E-013
 0.953665E-013
 0.953571E-013
 0.953445E-013
 0.953289E-013
 0.953102E-013
 0.952885E-013
 0.952638E-013
 0.952362E-013
 0.952057E-013
 0.951723E-013
 0.951362E-013
 0.950975E-013
 0.950560E-013
 0.950121E-013
 0.949656E-013
 0.949167E-013
 0.948656E-013
 0.948121E-013
 0.947566E-013
 0.946989E-013
 0.946392E-013
 0.945777E-013
 0.945143E-013
 0.944492E-013
 0.943824E-013
 0.943141E-013
 0.942442E-013
 0.941730E-013
 0.941004E-013
 0.940266E-013
 0.939515E-013
 0.938754E-013
 0.937982E-013
 0.937200E-013
 0.936409E-013
 0.935610E-013
 0.934802E-013
 0.933987E-013
 0.933165E-013
 0.932336E-013
 0.931502E-013
 0.930661E-013
 0.929816E-013
 0.928965E-013
 0.928110E-013
 0.927250E-013
 0.926387E-013
 0.925520E-013
 0.924649E-013
 0.923775E-013
 0.922897E-013
 0.922017E-013
 0.921134E-013
 0.920248E-013
 0.919359E-013
 0.918470E-013
 0.917565E-013
 0.916718E-013
 0.915628E-013
 0.915382E-013
 0.912593E-013
 0.916233E-013
 0.912593E-013
 0.907904E-013
 0.909456E-013
 0.908119E-013
 0.907855E-013
 0.907264E-013
 0.906759E-013
 0.906237E-013
 0.905720E-013
 0.905203E-013
 0.904689E-013
 0.904176E-013
 0.903665E-013
 0.903156E-013
 0.902649E-013
 0.902143E-013
 0.901640E-013
 0.901140E-013
 0.900642E-013
 0.900146E-013
 0.899654E-013
 0.899164E-013
 0.898678E-013
 0.898195E-013
 0.897716E-013
 0.897241E-013
 0.896771E-013
 0.896305E-013
 0.895844E-013
 0.895388E-013
 0.894938E-013
 0.894494E-013
 0.894057E-013
 0.893626E-013
 0.893203E-013
 0.892787E-013
 0.892380E-013
 0.891981E-013
 0.891592E-013
 0.891212E-013
 0.890842E-013
 0.890483E-013
 0.890135E-013
 0.889798E-013
 0.889474E-013
 0.889162E-013
 0.888863E-013
 0.888578E-013
 0.888306E-013
 0.888050E-013
 0.887808E-013
 0.887581E-013
 0.887370E-013
 0.887176E-013
 0.886998E-013
 0.886836E-013
 0.886692E-013
 0.886565E-013
 0.886456E-013
 0.886365E-013
 0.886291E-013
 0.886236E-013
 0.886199E-013
 0.886181E-013
 0.886181E-013
 0.886199E-013
 0.886236E-013
 0.886291E-013
 0.886365E-013
 0.886456E-013
 0.886565E-013
 0.886692E-013
 0.886836E-013
 0.886998E-013
 0.887176E-013
 0.887371E-013
 0.887581E-013
 0.887808E-013
 0.888050E-013
 0.888307E-013
 0.888578E-013
 0.888863E-013
 0.889162E-013
 0.889474E-013
 0.889798E-013
 0.890135E-013
 0.890483E-013
 0.890842E-013
 0.891212E-013
 0.891592E-013
 0.891982E-013
 0.892380E-013
 0.892788E-013
 0.893203E-013
 0.893626E-013
 0.894057E-013
 0.894494E-013
 0.894938E-013
 0.895388E-013
 0.895844E-013
 0.896305E-013
 0.896771E-013
 0.897241E-013
 0.897716E-013
 0.898195E-013
 0.898678E-013
 0.899164E-013
 0.899654E-013
 0.900147E-013
 0.900642E-013
 0.901140E-013
 0.901641E-013
 0.902144E-013
 0.902649E-013
 0.903156E-013
 0.903665E-013
 0.904176E-013
 0.904689E-013
 0.905203E-013
 0.905720E-013
 0.906237E-013
 0.906759E-013
 0.907264E-013
 0.907855E-013
 0.908119E-013
 0.909456E-013
 0.907904E-013
 0.912593E-013
 0.915382E-013
 0.909456E-013
 0.912671E-013
 0.911742E-013
 0.912341E-013
 0.912469E-013
 0.912720E-013
 0.912942E-013
 0.913170E-013
 0.913395E-013
 0.913620E-013
 0.913844E-013
 0.914068E-013
 0.914290E-013
 0.914512E-013
 0.914732E-013
 0.914952E-013
 0.915170E-013
 0.915388E-013
 0.915604E-013
 0.915819E-013
 0.916033E-013
 0.916245E-013
 0.916456E-013
 0.916665E-013
 0.916872E-013
 0.917078E-013
 0.917281E-013
 0.917482E-013
 0.917681E-013
 0.917877E-013
 0.918071E-013
 0.918262E-013
 0.918449E-013
 0.918634E-013
 0.918815E-013
 0.918993E-013
 0.919167E-013
 0.919337E-013
 0.919502E-013
 0.919664E-013
 0.919820E-013
 0.919972E-013
 0.920119E-013
 0.920260E-013
 0.920396E-013
 0.920527E-013
 0.920651E-013
 0.920769E-013
 0.920881E-013
 0.920987E-013
 0.921085E-013
 0.921177E-013
 0.921262E-013
 0.921340E-013
 0.921410E-013
 0.921473E-013
 0.921528E-013
 0.921576E-013
 0.921616E-013
 0.921648E-013
 0.921672E-013
 0.921688E-013
 0.921696E-013
 0.921696E-013
 0.921688E-013
 0.921672E-013
 0.921648E-013
 0.921616E-013
 0.921576E-013
 0.921528E-013
 0.921473E-013
 0.921410E-013
 0.921340E-013
 0.921262E-013
 0.921177E-013
 0.921085E-013
 0.920987E-013
 0.920881E-013
 0.920769E-013
 0.920651E-013
 0.920527E-013
 0.920396E-013
 0.920260E-013
 0.920119E-013
 0.919972E-013
 0.919820E-013
 0.919664E-013
 0.919502E-013
 0.919337E-013
 0.919167E-013
 0.918993E-013
 0.918815E-013
 0.918634E-013
 0.918449E-013
 0.918261E-013
 0.918071E-013
 0.917877E-013
 0.917681E-013
 0.917482E-013
 0.917281E-013
 0.917077E-013
 0.916872E-013
 0.916665E-013
 0.916456E-013
 0.916245E-013
 0.916033E-013
 0.915819E-013
 0.915604E-013
 0.915388E-013
 0.915170E-013
 0.914952E-013
 0.914732E-013
 0.914511E-013
 0.914290E-013
 0.914067E-013
 0.913844E-013
 0.913620E-013
 0.913395E-013
 0.913169E-013
 0.912942E-013
 0.912720E-013
 0.912469E-013
 0.912341E-013
 0.911742E-013
 0.912671E-013
 0.909456E-013
 0.915382E-013
 0.915628E-013
 0.908119E-013
 0.911742E-013
 0.910203E-013
 0.910594E-013
 0.910388E-013
 0.910339E-013
 0.910254E-013
 0.910177E-013
 0.910098E-013
 0.910020E-013
 0.909943E-013
 0.909865E-013
 0.909788E-013
 0.909712E-013
 0.909635E-013
 0.909559E-013
 0.909483E-013
 0.909408E-013
 0.909333E-013
 0.909258E-013
 0.909184E-013
 0.909111E-013
 0.909038E-013
 0.908965E-013
 0.908894E-013
 0.908823E-013
 0.908752E-013
 0.908682E-013
 0.908614E-013
 0.908546E-013
 0.908478E-013
 0.908412E-013
 0.908347E-013
 0.908283E-013
 0.908221E-013
 0.908159E-013
 0.908099E-013
 0.908040E-013
 0.907983E-013
 0.907927E-013
 0.907872E-013
 0.907820E-013
 0.907769E-013
 0.907720E-013
 0.907673E-013
 0.907628E-013
 0.907585E-013
 0.907544E-013
 0.907505E-013
 0.907469E-013
 0.907434E-013
 0.907403E-013
 0.907373E-013
 0.907346E-013
 0.907322E-013
 0.907300E-013
 0.907281E-013
 0.907264E-013
 0.907251E-013
 0.907240E-013
 0.907231E-013
 0.907226E-013
 0.907223E-013
 0.907223E-013
 0.907226E-013
 0.907231E-013
 0.907240E-013
 0.907251E-013
 0.907264E-013
 0.907281E-013
 0.907300E-013
 0.907322E-013
 0.907346E-013
 0.907373E-013
 0.907403E-013
 0.907434E-013
 0.907469E-013
 0.907505E-013
 0.907544E-013
 0.907585E-013
 0.907628E-013
 0.907673E-013
 0.907720E-013
 0.907769E-013
 0.907820E-013
 0.907873E-013
 0.907927E-013
 0.907983E-013
 0.908040E-013
 0.908099E-013
 0.908159E-013
 0.908221E-013
 0.908283E-013
 0.908347E-013
 0.908412E-013
 0.908479E-013
 0.908546E-013
 0.908614E-013
 0.908682E-013
 0.908752E-013
 0.908823E-013
 0.908894E-013
 0.908966E-013
 0.909038E-013
 0.909111E-013
 0.909185E-013
 0.909259E-013
 0.909333E-013
 0.909408E-013
 0.909483E-013
 0.909559E-013
 0.909635E-013
 0.909712E-013
 0.909788E-013
 0.909865E-013
 0.909943E-013
 0.910020E-013
 0.910098E-013
 0.910177E-013
 0.910254E-013
 0.910339E-013
 0.910388E-013
 0.910594E-013
 0.910203E-013
 0.911742E-013
 0.908119E-013
 0.915628E-013
 0.916718E-013
 0.907855E-013
 0.912341E-013
 0.910594E-013
 0.911190E-013
 0.911056E-013
 0.911115E-013
 0.911130E-013
 0.911154E-013
 0.911176E-013
 0.911199E-013
 0.911221E-013
 0.911243E-013
 0.911265E-013
 0.911287E-013
 0.911309E-013
 0.911330E-013
 0.911352E-013
 0.911374E-013
 0.911395E-013
 0.911416E-013
 0.911437E-013
 0.911458E-013
 0.911479E-013
 0.911500E-013
 0.911521E-013
 0.911541E-013
 0.911561E-013
 0.911581E-013
 0.911601E-013
 0.911620E-013
 0.911639E-013
 0.911658E-013
 0.911677E-013
 0.911695E-013
 0.911713E-013
 0.911731E-013
 0.911748E-013
 0.911765E-013
 0.911781E-013
 0.911797E-013
 0.911813E-013
 0.911828E-013
 0.911842E-013
 0.911856E-013
 0.911870E-013
 0.911883E-013
 0.911895E-013
 0.911907E-013
 0.911918E-013
 0.911928E-013
 0.911938E-013
 0.911947E-013
 0.911956E-013
 0.911963E-013
 0.911970E-013
 0.911977E-013
 0.911982E-013
 0.911987E-013
 0.911991E-013
 0.911994E-013
 0.911996E-013
 0.911998E-013
 0.911999E-013
 0.911999E-013
 0.911998E-013
 0.911996E-013
 0.911994E-013
 0.911991E-013
 0.911987E-013
 0.911982E-013
 0.911977E-013
 0.911970E-013
 0.911963E-013
 0.911956E-013
 0.911947E-013
 0.911938E-013
 0.911928E-013
 0.911918E-013
 0.911907E-013
 0.911895E-013
 0.911883E-013
 0.911870E-013
 0.911856E-013
 0.911842E-013
 0.911828E-013
 0.911813E-013
 0.911797E-013
 0.911781E-013
 0.911765E-013
 0.911748E-013
 0.911731E-013
 0.911713E-013
 0.911695E-013
 0.911677E-013
 0.911658E-013
 0.911639E-013
 0.911620E-013
 0.911601E-013
 0.911581E-013
 0.911561E-013
 0.911541E-013
 0.911521E-013
 0.911500E-013
 0.911479E-013
 0.911458E-013
 0.911437E-013
 0.911416E-013
 0.911395E-013
 0.911374E-013
 0.911352E-013
 0.911330E-013
 0.911309E-013
 0.911287E-013
 0.911265E-013
 0.911243E-013
 0.911221E-013
 0.911199E-013
 0.911176E-013
 0.911154E-013
 0.911130E-013
 0.911115E-013
 0.911056E-013
 0.911190E-013
 0.910594E-013
 0.912341E-013
 0.907855E-013
 0.916718E-013
 0.917565E-013
 0.907264E-013
 0.912469E-013
 0.910388E-013
 0.911056E-013
 0.910867E-013
 0.910905E-013
 0.910890E-013
 0.910887E-013
 0.910881E-013
 0.910876E-013
 0.910870E-013
 0.910865E-013
 0.910860E-013
 0.910854E-013
 0.910849E-013
 0.910844E-013
 0.910838E-013
 0.910833E-013
 0.910828E-013
 0.910823E-013
 0.910818E-013
 0.910813E-013
 0.910808E-013
 0.910803E-013
 0.910798E-013
 0.910793E-013
 0.910788E-013
 0.910783E-013
 0.910778E-013
 0.910774E-013
 0.910769E-013
 0.910765E-013
 0.910760E-013
 0.910756E-013
 0.910751E-013
 0.910747E-013
 0.910743E-013
 0.910739E-013
 0.910735E-013
 0.910731E-013
 0.910727E-013
 0.910724E-013
 0.910720E-013
 0.910717E-013
 0.910714E-013
 0.910711E-013
 0.910708E-013
 0.910705E-013
 0.910702E-013
 0.910700E-013
 0.910698E-013
 0.910695E-013
 0.910693E-013
 0.910692E-013
 0.910690E-013
 0.910688E-013
 0.910687E-013
 0.910686E-013
 0.910685E-013
 0.910684E-013
 0.910684E-013
 0.910683E-013
 0.910683E-013
 0.910683E-013
 0.910683E-013
 0.910684E-013
 0.910684E-013
 0.910685E-013
 0.910686E-013
 0.910687E-013
 0.910688E-013
 0.910690E-013
 0.910692E-013
 0.910693E-013
 0.910695E-013
 0.910698E-013
 0.910700E-013
 0.910702E-013
 0.910705E-013
 0.910708E-013
 0.910711E-013
 0.910714E-013
 0.910717E-013
 0.910720E-013
 0.910724E-013
 0.910727E-013
 0.910731E-013
 0.910735E-013
 0.910739E-013
 0.910743E-013
 0.910747E-013
 0.910751E-013
 0.910756E-013
 0.910760E-013
 0.910765E-013
 0.910769E-013
 0.910774E-013
 0.910778E-013
 0.910783E-013
 0.910788E-013
 0.910793E-013
 0.910798E-013
 0.910803E-013
 0.910808E-013
 0.910813E-013
 0.910818E-013
 0.910823E-013
 0.910828E-013
 0.910833E-013
 0.910838E-013
 0.910844E-013
 0.910849E-013
 0.910854E-013
 0.910860E-013
 0.910865E-013
 0.910870E-013
 0.910876E-013
 0.910881E-013
 0.910887E-013
 0.910890E-013
 0.910905E-013
 0.910867E-013
 0.911056E-013
 0.910388E-013
 0.912469E-013
 0.907264E-013
 0.917565E-013
 0.918470E-013
 0.906759E-013
 0.912720E-013
 0.910339E-013
 0.911115E-013
 0.910905E-013
 0.910955E-013
 0.910946E-013
 0.910949E-013
 0.910950E-013
 0.910951E-013
 0.910953E-013
 0.910954E-013
 0.910955E-013
 0.910956E-013
 0.910957E-013
 0.910958E-013
 0.910959E-013
 0.910960E-013
 0.910962E-013
 0.910963E-013
 0.910964E-013
 0.910965E-013
 0.910966E-013
 0.910967E-013
 0.910968E-013
 0.910969E-013
 0.910970E-013
 0.910971E-013
 0.910972E-013
 0.910973E-013
 0.910974E-013
 0.910975E-013
 0.910976E-013
 0.910977E-013
 0.910978E-013
 0.910979E-013
 0.910980E-013
 0.910981E-013
 0.910982E-013
 0.910983E-013
 0.910983E-013
 0.910984E-013
 0.910985E-013
 0.910986E-013
 0.910986E-013
 0.910987E-013
 0.910988E-013
 0.910988E-013
 0.910989E-013
 0.910990E-013
 0.910990E-013
 0.910991E-013
 0.910991E-013
 0.910992E-013
 0.910992E-013
 0.910992E-013
 0.910993E-013
 0.910993E-013
 0.910993E-013
 0.910993E-013
 0.910993E-013
 0.910994E-013
 0.910994E-013
 0.910994E-013
 0.910994E-013
 0.910993E-013
 0.910993E-013
 0.910993E-013
 0.910993E-013
 0.910993E-013
 0.910992E-013
 0.910992E-013
 0.910992E-013
 0.910991E-013
 0.910991E-013
 0.910990E-013
 0.910990E-013
 0.910989E-013
 0.910988E-013
 0.910988E-013
 0.910987E-013
 0.910986E-013
 0.910986E-013
 0.910985E-013
 0.910984E-013
 0.910983E-013
 0.910983E-013
 0.910982E-013
 0.910981E-013
 0.910980E-013
 0.910979E-013
 0.910978E-013
 0.910977E-013
 0.910976E-013
 0.910975E-013
 0.910974E-013
 0.910973E-013
 0.910972E-013
 0.910971E-013
 0.910970E-013
 0.910969E-013
 0.910968E-013
 0.910967E-013
 0.910966E-013
 0.910965E-013
 0.910964E-013
 0.910963E-013
 0.910962E-013
 0.910960E-013
 0.910959E-013
 0.910958E-013
 0.910957E-013
 0.910956E-013
 0.910955E-013
 0.910954E-013
 0.910953E-013
 0.910951E-013
 0.910950E-013
 0.910949E-013
 0.910946E-013
 0.910955E-013
 0.910905E-013
 0.911115E-013
 0.910339E-013
 0.912720E-013
 0.906759E-013
 0.918470E-013
 0.919359E-013
 0.906237E-013
 0.912942E-013
 0.910254E-013
 0.911130E-013
 0.910890E-013
 0.910946E-013
 0.910935E-013
 0.910937E-013
 0.910936E-013
 0.910936E-013
 0.910936E-013
 0.910936E-013
 0.910935E-013
 0.910935E-013
 0.910935E-013
 0.910935E-013
 0.910935E-013
 0.910934E-013
 0.910934E-013
 0.910934E-013
 0.910934E-013
 0.910934E-013
 0.910933E-013
 0.910933E-013
 0.910933E-013
 0.910933E-013
 0.910933E-013
 0.910933E-013
 0.910932E-013
 0.910932E-013
 0.910932E-013
 0.910932E-013
 0.910932E-013
 0.910932E-013
 0.910932E-013
 0.910931E-013
 0.910931E-013
 0.910931E-013
 0.910931E-013
 0.910931E-013
 0.910931E-013
 0.910931E-013
 0.910931E-013
 0.910931E-013
 0.910931E-013
 0.910930E-013
 0.910930E-013
 0.910930E-013
 0.910930E-013
 0.910930E-013
 0.910930E-013
 0.910930E-013
 0.910930E-013
 0.910930E-013
 0.910930E-013
 0.910930E-013
 0.910930E-013
 0.910930E-013
 0.910930E-013
 0.910930E-013
 0.910930E-013
 0.910930E-013
 0.910930E-013
 0.910930E-013
 0.910930E-013
 0.910930E-013
 0.910930E-013
 0.910930E-013
 0.910930E-013
 0.910930E-013
 0.910930E-013
 0.910930E-013
 0.910930E-013
 0.910930E-013
 0.910930E-013
 0.910930E-013
 0.910930E-013
 0.910930E-013
 0.910930E-013
 0.910930E-013
 0.910930E-013
 0.910931E-013
 0.910931E-013
 0.910931E-013
 0.910931E-013
 0.910931E-013
 0.910931E-013
 0.910931E-013
 0.910931E-013
 0.910931E-013
 0.910931E-013
 0.910932E-013
 0.910932E-013
 0.910932E-013
 0.910932E-013
 0.910932E-013
 0.910932E-013
 0.910932E-013
 0.910933E-013
 0.910933E-013
 0.910933E-013
 0.910933E-013
 0.910933E-013
 0.910933E-013
 0.910934E-013
 0.910934E-013
 0.910934E-013
 0.910934E-013
 0.910934E-013
 0.910935E-013
 0.910935E-013
 0.910935E-013
 0.910935E-013
 0.910935E-013
 0.910936E-013
 0.910936E-013
 0.910936E-013
 0.910936E-013
 0.910937E-013
 0.910935E-013
 0.910946E-013
 0.910890E-013
 0.911130E-013
 0.910254E-013
 0.912942E-013
 0.906237E-013
 0.919359E-013
 0.920248E-013
 0.905720E-013
 0.913170E-013
 0.910177E-013
 0.911154E-013
 0.910887E-013
 0.910949E-013
 0.910937E-013
 0.910939E-013
 0.910939E-013
 0.910939E-013
 0.910939E-013
 0.910939E-013
 0.910939E-013
 0.910939E-013
 0.910939E-013
 0.910939E-013
 0.910939E-013
 0.910939E-013
 0.910939E-013
 0.910939E-013
 0.910939E-013
 0.910939E-013
 0.910939E-013
 0.910939E-013
 0.910939E-013
 0.910939E-013
 0.910940E-013
 0.910940E-013
 0.910940E-013
 0.910940E-013
 0.910940E-013
 0.910940E-013
 0.910940E-013
 0.910940E-013
 0.910940E-013
 0.910940E-013
 0.910940E-013
 0.910940E-013
 0.910940E-013
 0.910941E-013
 0.910941E-013
 0.910941E-013
 0.910941E-013
 0.910941E-013
 0.910941E-013
 0.910941E-013
 0.910941E-013
 0.910941E-013
 0.910941E-013
 0.910941E-013
 0.910941E-013
 0.910942E-013
 0.910942E-013
 0.910942E-013
 0.910942E-013
 0.910942E-013
 0.910942E-013
 0.910942E-013
 0.910942E-013
 0.910942E-013
 0.910942E-013
 0.910942E-013
 0.910942E-013
 0.910942E-013
 0.910942E-013
 0.910942E-013
 0.910942E-013
 0.910942E-013
 0.910942E-013
 0.910942E-013
 0.910942E-013
 0.910942E-013
 0.910942E-013
 0.910942E-013
 0.910942E-013
 0.910941E-013
 0.910941E-013
 0.910941E-013
 0.910941E-013
 0.910941E-013
 0.910941E-013
 0.910941E-013
 0.910941E-013
 0.910941E-013
 0.910941E-013
 0.910941E-013
 0.910941E-013
 0.910940E-013
 0.910940E-013
 0.910940E-013
 0.910940E-013
 0.910940E-013
 0.910940E-013
 0.910940E-013
 0.910940E-013
 0.910940E-013
 0.910940E-013
 0.910940E-013
 0.910940E-013
 0.910940E-013
 0.910939E-013
 0.910939E-013
 0.910939E-013
 0.910939E-013
 0.910939E-013
 0.910939E-013
 0.910939E-013
 0.910939E-013
 0.910939E-013
 0.910939E-013
 0.910939E-013
 0.910939E-013
 0.910939E-013
 0.910939E-013
 0.910939E-013
 0.910939E-013
 0.910939E-013
 0.910939E-013
 0.910939E-013
 0.910937E-013
 0.910949E-013
 0.910887E-013
 0.911154E-013
 0.910177E-013
 0.913169E-013
 0.905720E-013
 0.920248E-013
 0.921133E-013
 0.905203E-013
 0.913395E-013
 0.910098E-013
 0.911176E-013
 0.910881E-013
 0.910950E-013
 0.910936E-013
 0.910939E-013
 0.910938E-013
 0.910938E-013
 0.910938E-013
 0.910938E-013
 0.910938E-013
 0.910938E-013
 0.910938E-013
 0.910938E-013
 0.910938E-013
 0.910938E-013
 0.910938E-013
 0.910938E-013
 0.910938E-013
 0.910938E-013
 0.910938E-013
 0.910938E-013
 0.910938E-013
 0.910938E-013
 0.910938E-013
 0.910938E-013
 0.910939E-013
 0.910939E-013
 0.910939E-013
 0.910939E-013
 0.910939E-013
 0.910939E-013
 0.910939E-013
 0.910939E-013
 0.910939E-013
 0.910939E-013
 0.910939E-013
 0.910939E-013
 0.910939E-013
 0.910939E-013
 0.910939E-013
 0.910939E-013
 0.910939E-013
 0.910940E-013
 0.910940E-013
 0.910940E-013
 0.910940E-013
 0.910940E-013
 0.910940E-013
 0.910940E-013
 0.910940E-013
 0.910940E-013
 0.910940E-013
 0.910940E-013
 0.910940E-013
 0.910940E-013
 0.910940E-013
 0.910940E-013
 0.910940E-013
 0.910940E-013
 0.910940E-013
 0.910940E-013
 0.910940E-013
 0.910940E-013
 0.910940E-013
 0.910940E-013
 0.910940E-013
 0.910940E-013
 0.910940E-013
 0.910940E-013
 0.910940E-013
 0.910940E-013
 0.910940E-013
 0.910940E-013
 0.910940E-013
 0.910940E-013
 0.910940E-013
 0.910940E-013
 0.910940E-013
 0.910940E-013
 0.910939E-013
 0.910939E-013
 0.910939E-013
 0.910939E-013
 0.910939E-013
 0.910939E-013
 0.910939E-013
 0.910939E-013
 0.910939E-013
 0.910939E-013
 0.910939E-013
 0.910939E-013
 0.910939E-013
 0.910939E-013
 0.910939E-013
 0.910939E-013
 0.910939E-013
 0.910938E-013
 0.910938E-013
 0.910938E-013
 0.910938E-013
 0.910938E-013
 0.910938E-013
 0.910938E-013
 0.910938E-013
 0.910938E-013
 0.910938E-013
 0.910938E-013
 0.910938E-013
 0.910938E-013
 0.910938E-013
 0.910938E-013
 0.910938E-013
 0.910938E-013
 0.910938E-013
 0.910938E-013
 0.910939E-013
 0.910936E-013
 0.910950E-013
 0.910881E-013
 0.911176E-013
 0.910098E-013
 0.913395E-013
 0.905204E-013
 0.921134E-013
 0.922017E-013
 0.904689E-013
 0.913620E-013
 0.910020E-013
 0.911199E-013
 0.910876E-013
 0.910951E-013
 0.910936E-013
 0.910939E-013
 0.910938E-013
 0.910938E-013
 0.910938E-013
 0.910938E-013
 0.910938E-013
 0.910938E-013
 0.910938E-013
 0.910938E-013
 0.910938E-013
 0.910938E-013
 0.910938E-013
 0.910938E-013
 0.910939E-013
 0.910939E-013
 0.910939E-013
 0.910939E-013
 0.910939E-013
 0.910939E-013
 0.910939E-013
 0.910939E-013
 0.910939E-013
 0.910939E-013
 0.910939E-013
 0.910939E-013
 0.910939E-013
 0.910939E-013
 0.910939E-013
 0.910939E-013
 0.910939E-013
 0.910939E-013
 0.910939E-013
 0.910940E-013
 0.910940E-013
 0.910940E-013
 0.910940E-013
 0.910940E-013
 0.910940E-013
 0.910940E-013
 0.910940E-013
 0.910940E-013