# vtk DataFile Version 3.0
Solution data
ASCII
DATASET STRUCTURED_GRID
DIMENSIONS 128 128 1
POINTS 16384  double
      0.000004      0.000004      0.000000
      0.000012      0.000004      0.000000
      0.000020      0.000004      0.000000
      0.000027      0.000004      0.000000
      0.000035      0.000004      0.000000
      0.000043      0.000004      0.000000
      0.000051      0.000004      0.000000
      0.000059      0.000004      0.000000
      0.000066      0.000004      0.000000
      0.000074      0.000004      0.000000
      0.000082      0.000004      0.000000
      0.000090      0.000004      0.000000
      0.000098      0.000004      0.000000
      0.000105      0.000004      0.000000
      0.000113      0.000004      0.000000
      0.000121      0.000004      0.000000
      0.000129      0.000004      0.000000
      0.000137      0.000004      0.000000
      0.000145      0.000004      0.000000
      0.000152      0.000004      0.000000
      0.000160      0.000004      0.000000
      0.000168      0.000004      0.000000
      0.000176      0.000004      0.000000
      0.000184      0.000004      0.000000
      0.000191      0.000004      0.000000
      0.000199      0.000004      0.000000
      0.000207      0.000004      0.000000
      0.000215      0.000004      0.000000
      0.000223      0.000004      0.000000
      0.000230      0.000004      0.000000
      0.000238      0.000004      0.000000
      0.000246      0.000004      0.000000
      0.000254      0.000004      0.000000
      0.000262      0.000004      0.000000
      0.000270      0.000004      0.000000
      0.000277      0.000004      0.000000
      0.000285      0.000004      0.000000
      0.000293      0.000004      0.000000
      0.000301      0.000004      0.000000
      0.000309      0.000004      0.000000
      0.000316      0.000004      0.000000
      0.000324      0.000004      0.000000
      0.000332      0.000004      0.000000
      0.000340      0.000004      0.000000
      0.000348      0.000004      0.000000
      0.000355      0.000004      0.000000
      0.000363      0.000004      0.000000
      0.000371      0.000004      0.000000
      0.000379      0.000004      0.000000
      0.000387      0.000004      0.000000
      0.000395      0.000004      0.000000
      0.000402      0.000004      0.000000
      0.000410      0.000004      0.000000
      0.000418      0.000004      0.000000
      0.000426      0.000004      0.000000
      0.000434      0.000004      0.000000
      0.000441      0.000004      0.000000
      0.000449      0.000004      0.000000
      0.000457      0.000004      0.000000
      0.000465      0.000004      0.000000
      0.000473      0.000004      0.000000
      0.000480      0.000004      0.000000
      0.000488      0.000004      0.000000
      0.000496      0.000004      0.000000
      0.000504      0.000004      0.000000
      0.000512      0.000004      0.000000
      0.000520      0.000004      0.000000
      0.000527      0.000004      0.000000
      0.000535      0.000004      0.000000
      0.000543      0.000004      0.000000
      0.000551      0.000004      0.000000
      0.000559      0.000004      0.000000
      0.000566      0.000004      0.000000
      0.000574      0.000004      0.000000
      0.000582      0.000004      0.000000
      0.000590      0.000004      0.000000
      0.000598      0.000004      0.000000
      0.000605      0.000004      0.000000
      0.000613      0.000004      0.000000
      0.000621      0.000004      0.000000
      0.000629      0.000004      0.000000
      0.000637      0.000004      0.000000
      0.000645      0.000004      0.000000
      0.000652      0.000004      0.000000
      0.000660      0.000004      0.000000
      0.000668      0.000004      0.000000
      0.000676      0.000004      0.000000
      0.000684      0.000004      0.000000
      0.000691      0.000004      0.000000
      0.000699      0.000004      0.000000
      0.000707      0.000004      0.000000
      0.000715      0.000004      0.000000
      0.000723      0.000004      0.000000
      0.000730      0.000004      0.000000
      0.000738      0.000004      0.000000
      0.000746      0.000004      0.000000
      0.000754      0.000004      0.000000
      0.000762      0.000004      0.000000
      0.000770      0.000004      0.000000
      0.000777      0.000004      0.000000
      0.000785      0.000004      0.000000
      0.000793      0.000004      0.000000
      0.000801      0.000004      0.000000
      0.000809      0.000004      0.000000
      0.000816      0.000004      0.000000
      0.000824      0.000004      0.000000
      0.000832      0.000004      0.000000
      0.000840      0.000004      0.000000
      0.000848      0.000004      0.000000
      0.000855      0.000004      0.000000
      0.000863      0.000004      0.000000
      0.000871      0.000004      0.000000
      0.000879      0.000004      0.000000
      0.000887      0.000004      0.000000
      0.000895      0.000004      0.000000
      0.000902      0.000004      0.000000
      0.000910      0.000004      0.000000
      0.000918      0.000004      0.000000
      0.000926      0.000004      0.000000
      0.000934      0.000004      0.000000
      0.000941      0.000004      0.000000
      0.000949      0.000004      0.000000
      0.000957      0.000004      0.000000
      0.000965      0.000004      0.000000
      0.000973      0.000004      0.000000
      0.000980      0.000004      0.000000
      0.000988      0.000004      0.000000
      0.000996      0.000004      0.000000
      0.000004      0.000012      0.000000
      0.000012      0.000012      0.000000
      0.000020      0.000012      0.000000
      0.000027      0.000012      0.000000
      0.000035      0.000012      0.000000
      0.000043      0.000012      0.000000
      0.000051      0.000012      0.000000
      0.000059      0.000012      0.000000
      0.000066      0.000012      0.000000
      0.000074      0.000012      0.000000
      0.000082      0.000012      0.000000
      0.000090      0.000012      0.000000
      0.000098      0.000012      0.000000
      0.000105      0.000012      0.000000
      0.000113      0.000012      0.000000
      0.000121      0.000012      0.000000
      0.000129      0.000012      0.000000
      0.000137      0.000012      0.000000
      0.000145      0.000012      0.000000
      0.000152      0.000012      0.000000
      0.000160      0.000012      0.000000
      0.000168      0.000012      0.000000
      0.000176      0.000012      0.000000
      0.000184      0.000012      0.000000
      0.000191      0.000012      0.000000
      0.000199      0.000012      0.000000
      0.000207      0.000012      0.000000
      0.000215      0.000012      0.000000
      0.000223      0.000012      0.000000
      0.000230      0.000012      0.000000
      0.000238      0.000012      0.000000
      0.000246      0.000012      0.000000
      0.000254      0.000012      0.000000
      0.000262      0.000012      0.000000
      0.000270      0.000012      0.000000
      0.000277      0.000012      0.000000
      0.000285      0.000012      0.000000
      0.000293      0.000012      0.000000
      0.000301      0.000012      0.000000
      0.000309      0.000012      0.000000
      0.000316      0.000012      0.000000
      0.000324      0.000012      0.000000
      0.000332      0.000012      0.000000
      0.000340      0.000012      0.000000
      0.000348      0.000012      0.000000
      0.000355      0.000012      0.000000
      0.000363      0.000012      0.000000
      0.000371      0.000012      0.000000
      0.000379      0.000012      0.000000
      0.000387      0.000012      0.000000
      0.000395      0.000012      0.000000
      0.000402      0.000012      0.000000
      0.000410      0.000012      0.000000
      0.000418      0.000012      0.000000
      0.000426      0.000012      0.000000
      0.000434      0.000012      0.000000
      0.000441      0.000012      0.000000
      0.000449      0.000012      0.000000
      0.000457      0.000012      0.000000
      0.000465      0.000012      0.000000
      0.000473      0.000012      0.000000
      0.000480      0.000012      0.000000
      0.000488      0.000012      0.000000
      0.000496      0.000012      0.000000
      0.000504      0.000012      0.000000
      0.000512      0.000012      0.000000
      0.000520      0.000012      0.000000
      0.000527      0.000012      0.000000
      0.000535      0.000012      0.000000
      0.000543      0.000012      0.000000
      0.000551      0.000012      0.000000
      0.000559      0.000012      0.000000
      0.000566      0.000012      0.000000
      0.000574      0.000012      0.000000
      0.000582      0.000012      0.000000
      0.000590      0.000012      0.000000
      0.000598      0.000012      0.000000
      0.000605      0.000012      0.000000
      0.000613      0.000012      0.000000
      0.000621      0.000012      0.000000
      0.000629      0.000012      0.000000
      0.000637      0.000012      0.000000
      0.000645      0.000012      0.000000
      0.000652      0.000012      0.000000
      0.000660      0.000012      0.000000
      0.000668      0.000012      0.000000
      0.000676      0.000012      0.000000
      0.000684      0.000012      0.000000
      0.000691      0.000012      0.000000
      0.000699      0.000012      0.000000
      0.000707      0.000012      0.000000
      0.000715      0.000012      0.000000
      0.000723      0.000012      0.000000
      0.000730      0.000012      0.000000
      0.000738      0.000012      0.000000
      0.000746      0.000012      0.000000
      0.000754      0.000012      0.000000
      0.000762      0.000012      0.000000
      0.000770      0.000012      0.000000
      0.000777      0.000012      0.000000
      0.000785      0.000012      0.000000
[...]
POINT_DATA 16384
SCALARS rhoe double
LOOKUP_TABLE default
 0.915023E-013
 0.913155E-013
 0.914999E-013
 0.915856E-013
 0.916917E-013
 0.917941E-013
 0.918967E-013
 0.919991E-013
 0.921011E-013
 0.922030E-013
 0.923045E-013
 0.924058E-013
 0.925068E-013
 0.926075E-013
 0.927078E-013
 0.928078E-013
 0.929074E-013
 0.930066E-013
 0.931053E-013
 0.932036E-013
 0.933014E-013
 0.933986E-013
 0.934952E-013
 0.935912E-013
 0.936864E-013
 0.937809E-013
 0.938747E-013
 0.939675E-013
 0.940594E-013
 0.941503E-013
 0.942401E-013
 0.943287E-013
 0.944161E-013
 0.945022E-013
 0.945868E-013
 0.946700E-013
 0.947515E-013
 0.948314E-013
 0.949095E-013
 0.949856E-013
 0.950598E-013
 0.951319E-013
 0.952018E-013
 0.952694E-013
 0.953347E-013
 0.953974E-013
 0.954575E-013
 0.955149E-013
 0.955695E-013
 0.956212E-013
 0.956699E-013
 0.957155E-013
 0.957580E-013
 0.957973E-013
 0.958332E-013
 0.958658E-013
 0.958949E-013
 0.959205E-013
 0.959425E-013
 0.959609E-013
 0.959757E-013
 0.959868E-013
 0.959943E-013
 0.959980E-013
 0.959980E-013
 0.959943E-013
 0.959868E-013
 0.959757E-013
 0.959609E-013
 0.959425E-013
 0.959204E-013
 0.958948E-013
 0.958657E-013
 0.958332E-013
 0.957972E-013
 0.957580E-013
 0.957155E-013
 0.956699E-013
 0.956211E-013
 0.955694E-013
 0.955148E-013
 0.954574E-013
 0.953973E-013
 0.953346E-013
 0.952694E-013
 0.952018E-013
 0.951319E-013
 0.950598E-013
 0.949856E-013
 0.949094E-013
 0.948313E-013
 0.947515E-013
 0.946699E-013
 0.945868E-013
 0.945021E-013
 0.944160E-013
 0.943286E-013
 0.942400E-013
 0.941502E-013
 0.940593E-013
 0.939674E-013
 0.938746E-013
 0.937809E-013
 0.936863E-013
 0.935911E-013
 0.934951E-013
 0.933985E-013
 0.933013E-013
 0.932035E-013
 0.931052E-013
 0.930065E-013
 0.929073E-013
 0.928077E-013
 0.927077E-013
 0.926074E-013
 0.925067E-013
 0.924058E-013
 0.923045E-013
 0.922029E-013
 0.921011E-013
 0.919990E-013
 0.918967E-013
 0.917940E-013
 0.916917E-013
 0.915856E-013
 0.914998E-013
 0.913155E-013
 0.915022E-013
 0.913155E-013
 0.909031E-013
 0.909830E-013
 0.909179E-013
 0.908852E-013
 0.908469E-013
 0.908095E-013
 0.907722E-013
 0.907349E-013
 0.906978E-013
 0.906607E-013
 0.906238E-013
 0.905870E-013
 0.905504E-013
 0.905138E-013
 0.904775E-013
 0.904412E-013
 0.904051E-013
 0.903692E-013
 0.903335E-013
 0.902980E-013
 0.902627E-013
 0.902276E-013
 0.901928E-013
 0.901582E-013
 0.901239E-013
 0.900899E-013
 0.900563E-013
 0.900230E-013
 0.899900E-013
 0.899575E-013
 0.899254E-013
 0.898938E-013
 0.898626E-013
 0.898320E-013
 0.898019E-013
 0.897724E-013
 0.897436E-013
 0.897154E-013
 0.896878E-013
 0.896610E-013
 0.896350E-013
 0.896098E-013
 0.895854E-013
 0.895618E-013
 0.895392E-013
 0.895175E-013
 0.894968E-013
 0.894771E-013
 0.894585E-013
 0.894409E-013
 0.894245E-013
 0.894092E-013
 0.893950E-013
 0.893821E-013
 0.893704E-013
 0.893599E-013
 0.893507E-013
 0.893427E-013
 0.893361E-013
 0.893308E-013
 0.893268E-013
 0.893241E-013
 0.893228E-013
 0.893228E-013
 0.893241E-013
 0.893268E-013
 0.893308E-013
 0.893361E-013
 0.893428E-013
 0.893507E-013
 0.893599E-013
 0.893704E-013
 0.893821E-013
 0.893951E-013
 0.894092E-013
 0.894245E-013
 0.894410E-013
 0.894585E-013
 0.894772E-013
 0.894969E-013
 0.895176E-013
 0.895393E-013
 0.895619E-013
 0.895854E-013
 0.896098E-013
 0.896351E-013
 0.896611E-013
 0.896879E-013
 0.897154E-013
 0.897436E-013
 0.897725E-013
 0.898020E-013
 0.898321E-013
 0.898627E-013
 0.898938E-013
 0.899255E-013
 0.899576E-013
 0.899901E-013
 0.900230E-013
 0.900563E-013
 0.900900E-013
 0.901240E-013
 0.901583E-013
 0.901928E-013
 0.902277E-013
 0.902627E-013
 0.902981E-013
 0.903336E-013
 0.903693E-013
 0.904052E-013
 0.904413E-013
 0.904775E-013
 0.905139E-013
 0.905504E-013
 0.905871E-013
 0.906239E-013
 0.906608E-013
 0.906978E-013
 0.907349E-013
 0.907722E-013
 0.908095E-013
 0.908469E-013
 0.908852E-013
 0.909179E-013
 0.909830E-013
 0.909031E-013
 0.913155E-013
 0.914999E-013
 0.909830E-013
 0.911596E-013
 0.911300E-013
 0.911468E-013
 0.911553E-013
 0.911650E-013
 0.911744E-013
 0.911839E-013
 0.911933E-013
 0.912028E-013
 0.912121E-013
 0.912215E-013
 0.912308E-013
 0.912401E-013
 0.912493E-013
 0.912585E-013
 0.912677E-013
 0.912768E-013
 0.912859E-013
 0.912949E-013
 0.913038E-013
 0.913127E-013
 0.913216E-013
 0.913304E-013
 0.913391E-013
 0.913477E-013
 0.913562E-013
 0.913647E-013
 0.913730E-013
 0.913813E-013
 0.913894E-013
 0.913974E-013
 0.914053E-013
 0.914131E-013
 0.914207E-013
 0.914282E-013
 0.914355E-013
 0.914427E-013
 0.914496E-013
 0.914564E-013
 0.914630E-013
 0.914694E-013
 0.914756E-013
 0.914816E-013
 0.914873E-013
 0.914928E-013
 0.914981E-013
 0.915031E-013
 0.915078E-013
 0.915123E-013
 0.915164E-013
 0.915203E-013
 0.915239E-013
 0.915272E-013
 0.915302E-013
 0.915328E-013
 0.915351E-013
 0.915372E-013
 0.915388E-013
 0.915402E-013
 0.915412E-013
 0.915419E-013
 0.915422E-013
 0.915422E-013
 0.915419E-013
 0.915412E-013
 0.915402E-013
 0.915388E-013
 0.915372E-013
 0.915351E-013
 0.915328E-013
 0.915301E-013
 0.915272E-013
 0.915239E-013
 0.915203E-013
 0.915164E-013
 0.915122E-013
 0.915078E-013
 0.915031E-013
 0.914981E-013
 0.914928E-013
 0.914873E-013
 0.914816E-013
 0.914756E-013
 0.914694E-013
 0.914630E-013
 0.914564E-013
 0.914496E-013
 0.914427E-013
 0.914355E-013
 0.914282E-013
 0.914207E-013
 0.914131E-013
 0.914053E-013
 0.913974E-013
 0.913894E-013
 0.913813E-013
 0.913730E-013
 0.913646E-013
 0.913562E-013
 0.913477E-013
 0.913390E-013
 0.913303E-013
 0.913216E-013
 0.913127E-013
 0.913038E-013
 0.912949E-013
 0.912859E-013
 0.912768E-013
 0.912677E-013
 0.912585E-013
 0.912493E-013
 0.912401E-013
 0.912308E-013
 0.912215E-013
 0.912121E-013
 0.912028E-013
 0.911933E-013
 0.911839E-013
 0.911744E-013
 0.911650E-013
 0.911553E-013
 0.911468E-013
 0.911300E-013
 0.911595E-013
 0.909830E-013
 0.914998E-013
 0.915856E-013
 0.909179E-013
 0.911300E-013
 0.910776E-013
 0.910851E-013
 0.910819E-013
 0.910802E-013
 0.910783E-013
 0.910765E-013
 0.910747E-013
 0.910728E-013
 0.910710E-013
 0.910692E-013
 0.910674E-013
 0.910656E-013
 0.910638E-013
 0.910620E-013
 0.910603E-013
 0.910585E-013
 0.910567E-013
 0.910550E-013
 0.910533E-013
 0.910516E-013
 0.910498E-013
 0.910482E-013
 0.910465E-013
 0.910448E-013
 0.910432E-013
 0.910415E-013
 0.910399E-013
 0.910383E-013
 0.910368E-013
 0.910352E-013
 0.910337E-013
 0.910322E-013
 0.910308E-013
 0.910293E-013
 0.910279E-013
 0.910266E-013
 0.910252E-013
 0.910239E-013
 0.910227E-013
 0.910215E-013
 0.910203E-013
 0.910191E-013
 0.910181E-013
 0.910170E-013
 0.910160E-013
 0.910151E-013
 0.910142E-013
 0.910133E-013
 0.910125E-013
 0.910118E-013
 0.910111E-013
 0.910105E-013
 0.910099E-013
 0.910094E-013
 0.910090E-013
 0.910086E-013
 0.910083E-013
 0.910080E-013
 0.910078E-013
 0.910077E-013
 0.910077E-013
 0.910077E-013
 0.910077E-013
 0.910078E-013
 0.910080E-013
 0.910083E-013
 0.910086E-013
 0.910090E-013
 0.910094E-013
 0.910099E-013
 0.910105E-013
 0.910111E-013
 0.910118E-013
 0.910125E-013
 0.910133E-013
 0.910142E-013
 0.910151E-013
 0.910160E-013
 0.910170E-013
 0.910181E-013
 0.910191E-013
 0.910203E-013
 0.910215E-013
 0.910227E-013
 0.910239E-013
 0.910252E-013
 0.910266E-013
 0.910279E-013
 0.910293E-013
 0.910308E-013
 0.910322E-013
 0.910337E-013
 0.910352E-013
 0.910368E-013
 0.910384E-013
 0.910399E-013
 0.910415E-013
 0.910432E-013
 0.910448E-013
 0.910465E-013
 0.910482E-013
 0.910498E-013
 0.910516E-013
 0.910533E-013
 0.910550E-013
 0.910567E-013
 0.910585E-013
 0.910603E-013
 0.910620E-013
 0.910638E-013
 0.910656E-013
 0.910674E-013
 0.910692E-013
 0.910710E-013
 0.910728E-013
 0.910747E-013
 0.910765E-013
 0.910783E-013
 0.910802E-013
 0.910819E-013
 0.910851E-013
 0.910776E-013
 0.911300E-013
 0.909179E-013
 0.915856E-013
 0.916917E-013
 0.908852E-013
 0.911468E-013
 0.910851E-013
 0.910969E-013
 0.910955E-013
 0.910960E-013
 0.910962E-013
 0.910965E-013
 0.910968E-013
 0.910971E-013
 0.910974E-013
 0.910977E-013
 0.910980E-013
 0.910982E-013
 0.910985E-013
 0.910988E-013
 0.910991E-013
 0.910994E-013
 0.910996E-013
 0.910999E-013
 0.911002E-013
 0.911005E-013
 0.911007E-013
 0.911010E-013
 0.911013E-013
 0.911015E-013
 0.911018E-013
 0.911020E-013
 0.911023E-013
 0.911026E-013
 0.911028E-013
 0.911031E-013
 0.911033E-013
 0.911036E-013
 0.911038E-013
 0.911040E-013
 0.911043E-013
 0.911045E-013
 0.911047E-013
 0.911049E-013
 0.911051E-013
 0.911053E-013
 0.911055E-013
 0.911057E-013
 0.911059E-013
 0.911061E-013
 0.911063E-013
 0.911064E-013
 0.911066E-013
 0.911067E-013
 0.911069E-013
 0.911070E-013
 0.911071E-013
 0.911072E-013
 0.911073E-013
 0.911074E-013
 0.911075E-013
 0.911076E-013
 0.911076E-013
 0.911077E-013
 0.911077E-013
 0.911077E-013
 0.911077E-013
 0.911077E-013
 0.911077E-013
 0.911077E-013
 0.911077E-013
 0.911076E-013
 0.911076E-013
 0.911075E-013
 0.911074E-013
 0.911073E-013
 0.911072E-013
 0.911071E-013
 0.911070E-013
 0.911069E-013
 0.911067E-013
 0.911066E-013
 0.911064E-013
 0.911063E-013
 0.911061E-013
 0.911059E-013
 0.911057E-013
 0.911055E-013
 0.911053E-013
 0.911051E-013
 0.911049E-013
 0.911047E-013
 0.911045E-013
 0.911043E-013
 0.911040E-013
 0.911038E-013
 0.911036E-013
 0.911033E-013
 0.911031E-013
 0.911028E-013
 0.911026E-013
 0.911023E-013
 0.911021E-013
 0.911018E-013
 0.911015E-013
 0.911013E-013
 0.911010E-013
 0.911007E-013
 0.911005E-013
 0.911002E-013
 0.910999E-013
 0.910996E-013
 0.910994E-013
 0.910991E-013
 0.910988E-013
 0.910985E-013
 0.910982E-013
 0.910980E-013
 0.910977E-013
 0.910974E-013
 0.910971E-013
 0.910968E-013
 0.910965E-013
 0.910962E-013
 0.910960E-013
 0.910955E-013
 0.910969E-013
 0.910851E-013
 0.911468E-013
 0.908852E-013
 0.916917E-013
 0.917941E-013
 0.908469E-013
 0.911553E-013
 0.910819E-013
 0.910955E-013
 0.910934E-013
 0.910936E-013
 0.910935E-013
 0.910935E-013
 0.910934E-013
 0.910934E-013
 0.910934E-013
 0.910933E-013
 0.910933E-013
 0.910933E-013
 0.910932E-013
 0.910932E-013
 0.910931E-013
 0.910931E-013
 0.910931E-013
 0.910930E-013
 0.910930E-013
 0.910930E-013
 0.910930E-013
 0.910929E-013
 0.910929E-013
 0.910929E-013
 0.910928E-013
 0.910928E-013
 0.910928E-013
 0.910928E-013
 0.910927E-013
 0.910927E-013
 0.910927E-013
 0.910927E-013
 0.910927E-013
 0.910926E-013
 0.910926E-013
 0.910926E-013
 0.910926E-013
 0.910926E-013
 0.910926E-013
 0.910926E-013
 0.910926E-013
 0.910926E-013
 0.910925E-013
 0.910925E-013
 0.910925E-013
 0.910925E-013
 0.910925E-013
 0.910925E-013
 0.910925E-013
 0.910925E-013
 0.910925E-013
 0.910925E-013
 0.910925E-013
 0.910925E-013
 0.910925E-013
 0.910925E-013
 0.910925E-013
 0.910925E-013
 0.910925E-013
 0.910925E-013
 0.910925E-013
 0.910925E-013
 0.910925E-013
 0.910925E-013
 0.910925E-013
 0.910925E-013
 0.910925E-013
 0.910925E-013
 0.910925E-013
 0.910925E-013
 0.910925E-013
 0.910925E-013
 0.910925E-013
 0.910925E-013
 0.910925E-013
 0.910925E-013
 0.910925E-013
 0.910925E-013
 0.910925E-013
 0.910925E-013
 0.910926E-013
 0.910926E-013
 0.910926E-013
 0.910926E-013
 0.910926E-013
 0.910926E-013
 0.910926E-013
 0.910926E-013
 0.910926E-013
 0.910927E-013
 0.910927E-013
 0.910927E-013
 0.910927E-013
 0.910927E-013
 0.910928E-013
 0.910928E-013
 0.910928E-013
 0.910928E-013
 0.910929E-013
 0.910929E-013
 0.910929E-013
 0.910930E-013
 0.910930E-013
 0.910930E-013
 0.910931E-013
 0.910931E-013
 0.910931E-013
 0.910932E-013
 0.910932E-013
 0.910932E-013
 0.910933E-013
 0.910933E-013
 0.910933E-013
 0.910934E-013
 0.910934E-013
 0.910934E-013
 0.910935E-013
 0.910935E-013
 0.910936E-013
 0.910934E-013
 0.910955E-013
 0.910819E-013
 0.911553E-013
 0.908469E-013
 0.917940E-013
 0.918967E-013
 0.908095E-013
 0.911650E-013
 0.910802E-013
 0.910960E-013
 0.910936E-013
 0.910939E-013
 0.910939E-013
 0.910939E-013
 0.910939E-013
 0.910939E-013
 0.910939E-013
 0.910939E-013
 0.910939E-013
 0.910939E-013
 0.910939E-013
 0.910939E-013
 0.910939E-013
 0.910939E-013
 0.910939E-013
 0.910939E-013
 0.910939E-013
 0.910940E-013
 0.910940E-013
 0.910940E-013
 0.910940E-013
 0.910940E-013
 0.910940E-013
 0.910940E-013
 0.910940E-013
 0.910940E-013
 0.910941E-013
 0.910941E-013
 0.910941E-013
 0.910941E-013
 0.910941E-013
 0.910941E-013
 0.910942E-013
 0.910942E-013
 0.910942E-013
 0.910942E-013
 0.910942E-013
 0.910943E-013
 0.910943E-013
 0.910943E-013
 0.910943E-013
 0.910944E-013
 0.910944E-013
 0.910944E-013
 0.910944E-013
 0.910944E-013
 0.910945E-013
 0.910945E-013
 0.910945E-013
 0.910945E-013
 0.910945E-013
 0.910946E-013
 0.910946E-013
 0.910946E-013
 0.910946E-013
 0.910946E-013
 0.910946E-013
 0.910946E-013
 0.910946E-013
 0.910946E-013
 0.910946E-013
 0.910946E-013
 0.910946E-013
 0.910946E-013
 0.910946E-013
 0.910946E-013
 0.910946E-013
 0.910945E-013
 0.910945E-013
 0.910945E-013
 0.910945E-013
 0.910945E-013
 0.910944E-013
 0.910944E-013
 0.910944E-013
 0.910944E-013
 0.910944E-013
 0.910943E-013
 0.910943E-013
 0.910943E-013
 0.910943E-013
 0.910942E-013
 0.910942E-013
 0.910942E-013
 0.910942E-013
 0.910942E-013
 0.910941E-013
 0.910941E-013
 0.910941E-013
 0.910941E-013
 0.910941E-013
 0.910941E-013
 0.910940E-013
 0.910940E-013
 0.910940E-013
 0.910940E-013
 0.910940E-013
 0.910940E-013
 0.910940E-013
 0.910940E-013
 0.910940E-013
 0.910939E-013
 0.910939E-013
 0.910939E-013
 0.910939E-013
 0.910939E-013
 0.910939E-013
 0.910939E-013
 0.910939E-013
 0.910939E-013
 0.910939E-013
 0.910939E-013
 0.910939E-013
 0.910939E-013
 0.910939E-013
 0.910939E-013
 0.910939E-013
 0.910936E-013
 0.910960E-013
 0.910802E-013
 0.911650E-013
 0.908096E-013
 0.918967E-013
 0.919991E-013
 0.907722E-013
 0.911744E-013
 0.910783E-013
 0.910962E-013
 0.910935E-013
 0.910939E-013
 0.910938E-013
 0.910938E-013
 0.910938E-013
 0.910938E-013
 0.910938E-013
 0.910938E-013
 0.910938E-013
 0.910938E-013
 0.910938E-013
 0.910938E-013
 0.910938E-013
 0.910938E-013
 0.910938E-013
 0.910938E-013
 0.910938E-013
 0.910939E-013
 0.910939E-013
 0.910939E-013
 0.910939E-013
 0.910939E-013
 0.910939E-013
 0.910939E-013
 0.910939E-013
 0.910939E-013
 0.910939E-013
 0.910939E-013
 0.910940E-013
 0.910940E-013
 0.910940E-013
 0.910940E-013
 0.910940E-013
 0.910940E-013
 0.910941E-013
 0.910941E-013
 0.910941E-013
 0.910941E-013
 0.910942E-013
 0.910942E-013
 0.910942E-013
 0.910942E-013
 0.910943E-013
 0.910943E-013
 0.910943E-013
 0.910943E-013
 0.910943E-013
 0.910944E-013
 0.910944E-013
 0.910944E-013
 0.910944E-013
 0.910944E-013
 0.910945E-013
 0.910945E-013
 0.910945E-013
 0.910945E-013
 0.910945E-013
 0.910945E-013
 0.910945E-013
 0.910945E-013
 0.910945E-013
 0.910945E-013
 0.910945E-013
 0.910945E-013
 0.910945E-013
 0.910945E-013
 0.910944E-013
 0.910944E-013
 0.910944E-013
 0.910944E-013
 0.910944E-013
 0.910943E-013
 0.910943E-013
 0.910943E-013
 0.910943E-013
 0.910943E-013
 0.910942E-013
 0.910942E-013
 0.910942E-013
 0.910942E-013
 0.910941E-013
 0.910941E-013
 0.910941E-013
 0.910941E-013
 0.910941E-013
 0.910940E-013
 0.910940E-013
 0.910940E-013
 0.910940E-013
 0.910940E-013
 0.910939E-013
 0.910939E-013
 0.910939E-013
 0.910939E-013
 0.910939E-013
 0.910939E-013
 0.910939E-013
 0.910939E-013
 0.910939E-013
 0.910939E-013
 0.910939E-013
 0.910938E-013
 0.910938E-013
 0.910938E-013
 0.910938E-013
 0.910938E-013
 0.910938E-013
 0.910938E-013
 0.910938E-013
 0.910938E-013
 0.910938E-013
 0.910938E-013
 0.910938E-013
 0.910938E-013
 0.910938E-013
 0.910938E-013
 0.910939E-013
 0.910935E-013
 0.910962E-013
 0.910783E-013
 0.911744E-013
 0.907722E-013
 0.919990E-013
 0.921011E-013
 0.907349E-013
 0.911839E-013
 0.910765E-013
 0.910965E-013
 0.910935E-013
 0.910939E-013
 0.910938E-013
 0.910938E-013
 0.910938E-013
 0.910938E-013
 0.910938E-013
 0.910938E-013
 0.910938E-013
 0.910938E-013
 0.910938E-013
 0.910938E-013
 0.910938E-013
 0.910938E-013
 0.910939E-013
 0.910939E-013
 0.910939E-013
 0.910939E-013
 0.910939E-013
 0.910939E-013
 0.910939E-013
 0.910939E-013
 0.910939E-013
 0.910939E-013
 0.910939E-013
 0.910940E-013
 0.910940E-013
 0.910940E-013
 0.910940E-013
 0.910940E-013
 0.910940E-013
 0.910941E-013
 0.910941E-013
 0.910941E-013
 0.910941E-013
 0.910942E-013
 0.910942E-013
 0.910942E-013
 0.910942E-013
 0.910943E-013
 0.910943E-013
 0.910943E-013
 0.910944E-013
 0.910944E-013
 0.910944E-013
 0.910944E-013
 0.910945E-013
 0.910945E-013
 0.910945E-013
 0.910945E-013
 0.910946E-013
 0.910946E-013
 0.910946E-013
 0.910946E-013
 0.910946E-013
 0.910946E-013
 0.910946E-013
 0.910946E-013
 0.910946E-013
 0.910946E-013
 0.910946E-013
 0.910946E-013
 0.910946E-013
 0.910946E-013
 0.910946E-013
 0.910946E-013
 0.910946E-013
 0.910946E-013
 0.910945E-013
 0.910945E-013
 0.910945E-013
 0.910945E-013
 0.910944E-013
 0.910944E-013
 0.910944E-013
 0.910944E-013
 0.910943E-013
 0.910943E-013
 0.910943E-013
 0.910942E-013
 0.910942E-013
 0.910942E-013
 0.910942E-013
 0.910941E-013
 0.910941E-013
 0.910941E-013
 0.910941E-013
 0.910940E-013
 0.910940E-013
 0.910940E-013
 0.910940E-013
 0.910940E-013
 0.910940E-013
 0.910939E-013
 0.910939E-013
 0.910939E-013
 0.910939E-013
 0.910939E-013
 0.910939E-013
 0.910939E-013
 0.910939E-013
 0.910939E-013
 0.910939E-013
 0.910939E-013
 0.910939E-013
 0.910938E-013
 0.910938E-013
 0.910938E-013
 0.910938E-013
 0.910938E-013
 0.910938E-013
 0.910938E-013
 0.910938E-013
 0.910938E-013
 0.910938E-013
 0.910938E-013
 0.910939E-013
 0.910935E-013
 0.910965E-013
 0.910765E-013
 0.911839E-013
 0.907349E-013
 0.921011E-013
 0.922030E-013
 0.906978E-013
 0.911933E-013
 0.910747E-013
 0.910968E-013
 0.910934E-013
 0.910939E-013
 0.910938E-013
 0.910938E-013
 0.910938E-013
 0.910938E-013
 0.910938E-013
 0.910938E-013
 0.910938E-013
 0.910938E-013
 0.910938E-013
 0.910938E-013
 0.910938E-013
 0.910939E-013
 0.910939E-013
 0.910939E-013
 0.910939E-013
 0.910939E-013
 0.910939E-013
 0.910939E-013
 0.910939E-013
 0.910939E-013
 0.910939E-013
 0.910939E-013
 0.910940E-013
 0.910940E-013
 0.910940E-013
 0.910940E-013
 0.910940E-013
 0.910941E-013
 0.910941E-013
 0.910941E-013
 0.910941E-013
 0.910942E-013
 0.910942E-013
 0.910942E-013
 0.910943E-013
 0.910943E-013
 0.910943E-013
 0.910944E-013
 0.910944E-013
 0.910944E-013
 0.910945E-013
 0.910945E-013
 0.910945E-013
 0.910946E-013
 0.910946E-013
 0.910946E-013
 0.910946E-013
 0.910947E-013
 0.910947E-013
 0.910947E-013
 0.910947E-013
 0.910948E-013
 0.910948E-013
 0.910948E-013
 0.910948E-013
 0.910948E-013
 0.910948E-013
 0.910948E-013
 0.910948E-013
 0.910948E-013
 0.910948E-013
 0.910948E-013
 0.910948E-013
 0.910947E-013
 0.910947E-013
 0.910947E-013
 0.910947E-013
 0.910946E-013
 0.910946E-013
 0.910946E-013
 0.910946E-013
 0.910945E-013
 0.910945E-013
 0.910945E-013
 0.910944E-013
 0.910944E-013
 0.910944E-013
 0.910943E-013
 0.910943E-013
 0.910943E-013
 0.910942E-013
 0.910942E-013
 0.910942E-013
 0.910941E-013
 0.910941E-013
 0.910941E-013
 0.910941E-013
 0.910940E-013
 0.910940E-013
 0.910940E-013
 0.910940E-013
 0.910940E-013
 0.910939E-013
 0.910939E-013
 0.910939E-013
 0.910939E-013
 0.910939E-013
 0.910939E-013
 0.910939E-013
 0.910939E-013
 0.910939E-013
 0.910939E-013
 0.910939E-013
 0.910939E-013
 0.910938E-013
 0.910938E-013
 0.910938E-013
 0.910938E-013
 0.910938E-013
 0.910938E-013
 0.910938E-013
 0.910938E-013
 0.910938E-013
 0.910938E-013
 0.910939E-013
 0.910934E-013
 0.910968E-013
 0.910747E-013
 0.911933E-013
 0.906978E-013
 0.922029E-013
 0.923045E-013
 0.906607E-013
 0.912028E-013
 0.910728E-013
 0.910971E-013
 0.910934E-013
 0.910939E-013
 0.910938E-013
 0.910938E-013
 0.910938E-013
 0.910938E-013
 0.910938E-013
 0.910938E-013
 0.910938E-013
 0.910938E-013
 0.910938E-013
 0.910938E-013
 0.910939E-013
 0.910939E-013
 0.910939E-013
 0.910939E-013
 0.910939E-013
 0.910939E-013
 0.910939E-013
 0.910939E-013
 0.910939E-013
 0.910939E-013
 0.910940E-013
 0.910940E-013
 0.910940E-013
 0.910940E-013
 0.910940E-013
 0.910941E-013
 0.910941E-013
 0.910941E-013
 0.910941E-013
 0.910942E-013
 0.910942E-013
 0.910942E-013
 0.910943E-013
 0.910943E-013
 0.910943E-013
 0.910944E-013
 0.910944E-013
 0.910944E-013
 0.910945E-013
 0.910945E-013
 0.910946E-013
 0.910946E-013