# vtk DataFile Version 3.0
Solution data
ASCII
DATASET STRUCTURED_GRID
DIMENSIONS 128 128 1
POINTS 16384  double
      0.000004      0.000004      0.000000
      0.000012      0.000004      0.000000
      0.000020      0.000004      0.000000
      0.000027      0.000004      0.000000
      0.000035      0.000004      0.000000
      0.000043      0.000004      0.000000
      0.000051      0.000004      0.000000
      0.000059      0.000004      0.000000
      0.000066      0.000004      0.000000
      0.000074      0.000004      0.000000
      0.000082      0.000004      0.000000
      0.000090      0.000004      0.000000
      0.000098      0.000004      0.000000
      0.000105      0.000004      0.000000
      0.000113      0.000004      0.000000
      0.000121      0.000004      0.000000
      0.000129      0.000004      0.000000
      0.000137      0.000004      0.000000
      0.000145      0.000004      0.000000
      0.000152      0.000004      0.000000
      0.000160      0.000004      0.000000
      0.000168      0.000004      0.000000
      0.000176      0.000004      0.000000
      0.000184      0.000004      0.000000
      0.000191      0.000004      0.000000
      0.000199      0.000004      0.000000
      0.000207      0.000004      0.000000
      0.000215      0.000004      0.000000
      0.000223      0.000004      0.000000
      0.000230      0.000004      0.000000
      0.000238      0.000004      0.000000
      0.000246      0.000004      0.000000
      0.000254      0.000004      0.000000
      0.000262      0.000004      0.000000
      0.000270      0.000004      0.000000
      0.000277      0.000004      0.000000
      0.000285      0.000004      0.000000
      0.000293      0.000004      0.000000
      0.000301      0.000004      0.000000
      0.000309      0.000004      0.000000
      0.000316      0.000004      0.000000
      0.000324      0.000004      0.000000
      0.000332      0.000004      0.000000
      0.000340      0.000004      0.000000
      0.000348      0.000004      0.000000
      0.000355      0.000004      0.000000
      0.000363      0.000004      0.000000
      0.000371      0.000004      0.000000
      0.000379      0.000004      0.000000
      0.000387      0.000004      0.000000
      0.000395      0.000004      0.000000
      0.000402      0.000004      0.000000
      0.000410      0.000004      0.000000
      0.000418      0.000004      0.000000
      0.000426      0.000004      0.000000
      0.000434      0.000004      0.000000
      0.000441      0.000004      0.000000
      0.000449      0.000004      0.000000
      0.000457      0.000004      0.000000
      0.000465      0.000004      0.000000
      0.000473      0.000004      0.000000
      0.000480      0.000004      0.000000
      0.000488      0.000004      0.000000
      0.000496      0.000004      0.000000
      0.000504      0.000004      0.000000
      0.000512      0.000004      0.000000
      0.000520      0.000004      0.000000
      0.000527      0.000004      0.000000
      0.000535      0.000004      0.000000
      0.000543      0.000004      0.000000
      0.000551      0.000004      0.000000
      0.000559      0.000004      0.000000
      0.000566      0.000004      0.000000
      0.000574      0.000004      0.000000
      0.000582      0.000004      0.000000
      0.000590      0.000004      0.000000
      0.000598      0.000004      0.000000
      0.000605      0.000004      0.000000
      0.000613      0.000004      0.000000
      0.000621      0.000004      0.000000
      0.000629      0.000004      0.000000
      0.000637      0.000004      0.000000
      0.000645      0.000004      0.000000
      0.000652      0.000004      0.000000
      0.000660      0.000004      0.000000
      0.000668      0.000004      0.000000
      0.000676      0.000004      0.000000
      0.000684      0.000004      0.000000
      0.000691      0.000004      0.000000
      0.000699      0.000004      0.000000
      0.000707      0.000004      0.000000
      0.000715      0.000004      0.000000
      0.000723      0.000004      0.000000
      0.000730      0.000004      0.000000
      0.000738      0.000004      0.000000
      0.000746      0.000004      0.000000
      0.000754      0.000004      0.000000
      0.000762      0.000004      0.000000
      0.000770      0.000004      0.000000
      0.000777      0.000004      0.000000
      0.000785      0.000004      0.000000
      0.000793      0.000004      0.000000
      0.000801      0.000004      0.000000
      0.000809      0.000004      0.000000
      0.000816      0.000004      0.000000
      0.000824      0.000004      0.000000
      0.000832      0.000004      0.000000
      0.000840      0.000004      0.000000
      0.000848      0.000004      0.000000
      0.000855      0.000004      0.000000
      0.000863      0.000004      0.000000
      0.000871      0.000004      0.000000
      0.000879      0.000004      0.000000
      0.000887      0.000004      0.000000
      0.000895      0.000004      0.000000
      0.000902      0.000004      0.000000
      0.000910      0.000004      0.000000
      0.000918      0.000004      0.000000
      0.000926      0.000004      0.000000
      0.000934      0.000004      0.000000
      0.000941      0.000004      0.000000
      0.000949      0.000004      0.000000
      0.000957      0.000004      0.000000
      0.000965      0.000004      0.000000
      0.000973      0.000004      0.000000
      0.000980      0.000004      0.000000
      0.000988      0.000004      0.000000
      0.000996      0.000004      0.000000
      0.000004      0.000012      0.000000
      0.000012      0.000012      0.000000
      0.000020      0.000012      0.000000
      0.000027      0.000012      0.000000
      0.000035      0.000012      0.000000
      0.000043      0.000012      0.000000
      0.000051      0.000012      0.000000
      0.000059      0.000012      0.000000
      0.000066      0.000012      0.000000
      0.000074      0.000012      0.000000
      0.000082      0.000012      0.000000
      0.000090      0.000012      0.000000
      0.000098      0.000012      0.000000
      0.000105      0.000012      0.000000
      0.000113      0.000012      0.000000
      0.000121      0.000012      0.000000
      0.000129      0.000012      0.000000
      0.000137      0.000012      0.000000
      0.000145      0.000012      0.000000
      0.000152      0.000012      0.000000
      0.000160      0.000012      0.000000
      0.000168      0.000012      0.000000
      0.000176      0.000012      0.000000
      0.000184      0.000012      0.000000
      0.000191      0.000012      0.000000
      0.000199      0.000012      0.000000
      0.000207      0.000012      0.000000
      0.000215      0.000012      0.000000
      0.000223      0.000012      0.000000
      0.000230      0.000012      0.000000
      0.000238      0.000012      0.000000
      0.000246      0.000012      0.000000
      0.000254      0.000012      0.000000
      0.000262      0.000012      0.000000
      0.000270      0.000012      0.000000
      0.000277      0.000012      0.000000
      0.000285      0.000012      0.000000
      0.000293      0.000012      0.000000
      0.000301      0.000012      0.000000
      0.000309      0.000012      0.000000
      0.000316      0.000012      0.000000
      0.000324      0.000012      0.000000
      0.000332      0.000012      0.000000
      0.000340      0.000012      0.000000
      0.000348      0.000012      0.000000
      0.000355      0.000012      0.000000
      0.000363      0.000012      0.000000
      0.000371      0.000012      0.000000
      0.000379      0.000012      0.000000
      0.000387      0.000012      0.000000
      0.000395      0.000012      0.000000
      0.000402      0.000012      0.000000
      0.000410      0.000012      0.000000
      0.000418      0.000012      0.000000
      0.000426      0.000012      0.000000
      0.000434      0.000012      0.000000
      0.000441      0.000012      0.000000
      0.000449      0.000012      0.000000
      0.000457      0.000012      0.000000
      0.000465      0.000012      0.000000
      0.000473      0.000012      0.000000
      0.000480      0.000012      0.000000
      0.000488      0.000012      0.000000
      0.000496      0.000012      0.000000
      0.000504      0.000012      0.000000
      0.000512      0.000012      0.000000
      0.000520      0.000012      0.000000
      0.000527      0.000012      0.000000
      0.000535      0.000012      0.000000
      0.000543      0.000012      0.000000
      0.000551      0.000012      0.000000
      0.000559      0.000012      0.000000
      0.000566      0.000012      0.000000
      0.000574      0.000012      0.000000
      0.000582      0.000012      0.000000
      0.000590      0.000012      0.000000
      0.000598      0.000012      0.000000
      0.000605      0.000012      0.000000
      0.000613      0.000012      0.000000
      0.000621      0.000012      0.000000
      0.000629      0.000012      0.000000
      0.000637      0.000012      0.000000
      0.000645      0.000012      0.000000
      0.000652      0.000012      0.000000
      0.000660      0.000012      0.000000
      0.000668      0.000012      0.000000
      0.000676      0.000012      0.000000
      0.000684      0.000012      0.000000
      0.000691      0.000012      0.000000
      0.000699      0.000012      0.000000
      0.000707      0.000012      0.000000
      0.000715      0.000012      0.000000
      0.000723      0.000012      0.000000
      0.000730      0.000012      0.000000
      0.000738      0.000012      0.000000
      0.000746      0.000012      0.000000
      0.000754      0.000012      0.000000
      0.000762      0.000012      0.000000
      0.000770      0.000012      0.000000
      0.000777      0.000012      0.000000
      0.000785      0.000012      0.000000
[...]
POINT_DATA 16384
SCALARS rhoe double
LOOKUP_TABLE default
 0.916074E-013
 0.912719E-013
 0.915340E-013
 0.915717E-013
 0.916795E-013
 0.917683E-013
 0.918612E-013
 0.919530E-013
 0.920447E-013
 0.921361E-013
 0.922272E-013
 0.923181E-013
 0.924086E-013
 0.924988E-013
 0.925886E-013
 0.926781E-013
 0.927673E-013
 0.928560E-013
 0.929442E-013
 0.930320E-013
 0.931193E-013
 0.932061E-013
 0.932922E-013
 0.933778E-013
 0.934627E-013
 0.935469E-013
 0.936303E-013
 0.937128E-013
 0.937945E-013
 0.938753E-013
 0.939550E-013
 0.940337E-013
 0.941112E-013
 0.941875E-013
 0.942625E-013
 0.943361E-013
 0.944083E-013
 0.944790E-013
 0.945480E-013
 0.946153E-013
 0.946808E-013
 0.947445E-013
 0.948062E-013
 0.948658E-013
 0.949233E-013
 0.949785E-013
 0.950315E-013
 0.950820E-013
 0.951300E-013
 0.951755E-013
 0.952184E-013
 0.952585E-013
 0.952959E-013
 0.953303E-013
 0.953619E-013
 0.953905E-013
 0.954160E-013
 0.954385E-013
 0.954578E-013
 0.954740E-013
 0.954870E-013
 0.954968E-013
 0.955033E-013
 0.955065E-013
 0.955065E-013
 0.955033E-013
 0.954968E-013
 0.954870E-013
 0.954740E-013
 0.954578E-013
 0.954385E-013
 0.954160E-013
 0.953905E-013
 0.953619E-013
 0.953303E-013
 0.952959E-013
 0.952585E-013
 0.952184E-013
 0.951755E-013
 0.951301E-013
 0.950820E-013
 0.950315E-013
 0.949785E-013
 0.949233E-013
 0.948658E-013
 0.948062E-013
 0.947445E-013
 0.946808E-013
 0.946153E-013
 0.945480E-013
 0.944790E-013
 0.944083E-013
 0.943362E-013
 0.942625E-013
 0.941875E-013
 0.941112E-013
 0.940337E-013
 0.939550E-013
 0.938753E-013
 0.937945E-013
 0.937128E-013
 0.936303E-013
 0.935469E-013
 0.934627E-013
 0.933778E-013
 0.932923E-013
 0.932061E-013
 0.931193E-013
 0.930320E-013
 0.929442E-013
 0.928560E-013
 0.927673E-013
 0.926781E-013
 0.925886E-013
 0.924988E-013
 0.924086E-013
 0.923181E-013
 0.922272E-013
 0.921361E-013
 0.920447E-013
 0.919530E-013
 0.918612E-013
 0.917683E-013
 0.916795E-013
 0.915717E-013
 0.915340E-013
 0.912719E-013
 0.916074E-013
 0.912719E-013
 0.908041E-013
 0.909485E-013
 0.908260E-013
 0.907961E-013
 0.907400E-013
 0.906903E-013
 0.906395E-013
 0.905891E-013
 0.905388E-013
 0.904886E-013
 0.904386E-013
 0.903888E-013
 0.903391E-013
 0.902897E-013
 0.902404E-013
 0.901914E-013
 0.901426E-013
 0.900940E-013
 0.900457E-013
 0.899976E-013
 0.899499E-013
 0.899025E-013
 0.898554E-013
 0.898086E-013
 0.897623E-013
 0.897164E-013
 0.896709E-013
 0.896260E-013
 0.895815E-013
 0.895376E-013
 0.894943E-013
 0.894516E-013
 0.894096E-013
 0.893683E-013
 0.893277E-013
 0.892880E-013
 0.892490E-013
 0.892110E-013
 0.891739E-013
 0.891378E-013
 0.891028E-013
 0.890688E-013
 0.890359E-013
 0.890042E-013
 0.889738E-013
 0.889446E-013
 0.889168E-013
 0.888903E-013
 0.888652E-013
 0.888416E-013
 0.888194E-013
 0.887989E-013
 0.887798E-013
 0.887624E-013
 0.887467E-013
 0.887326E-013
 0.887202E-013
 0.887095E-013
 0.887006E-013
 0.886935E-013
 0.886881E-013
 0.886845E-013
 0.886827E-013
 0.886827E-013
 0.886845E-013
 0.886881E-013
 0.886935E-013
 0.887006E-013
 0.887095E-013
 0.887202E-013
 0.887326E-013
 0.887467E-013
 0.887624E-013
 0.887799E-013
 0.887989E-013
 0.888195E-013
 0.888416E-013
 0.888652E-013
 0.888903E-013
 0.889168E-013
 0.889446E-013
 0.889738E-013
 0.890043E-013
 0.890359E-013
 0.890688E-013
 0.891028E-013
 0.891379E-013
 0.891740E-013
 0.892111E-013
 0.892491E-013
 0.892880E-013
 0.893277E-013
 0.893683E-013
 0.894096E-013
 0.894516E-013
 0.894943E-013
 0.895376E-013
 0.895815E-013
 0.896260E-013
 0.896710E-013
 0.897164E-013
 0.897623E-013
 0.898087E-013
 0.898554E-013
 0.899025E-013
 0.899499E-013
 0.899977E-013
 0.900457E-013
 0.900940E-013
 0.901426E-013
 0.901914E-013
 0.902405E-013
 0.902897E-013
 0.903392E-013
 0.903888E-013
 0.904386E-013
 0.904886E-013
 0.905388E-013
 0.905891E-013
 0.906395E-013
 0.906904E-013
 0.907400E-013
 0.907961E-013
 0.908260E-013
 0.909485E-013
 0.908041E-013
 0.912719E-013
 0.915340E-013
 0.909485E-013
 0.912485E-013
 0.911679E-013
 0.912188E-013
 0.912320E-013
 0.912543E-013
 0.912746E-013
 0.912952E-013
 0.913157E-013
 0.913361E-013
 0.913565E-013
 0.913768E-013
 0.913970E-013
 0.914172E-013
 0.914372E-013
 0.914572E-013
 0.914770E-013
 0.914968E-013
 0.915165E-013
 0.915360E-013
 0.915555E-013
 0.915748E-013
 0.915939E-013
 0.916129E-013
 0.916318E-013
 0.916504E-013
 0.916689E-013
 0.916872E-013
 0.917053E-013
 0.917232E-013
 0.917408E-013
 0.917581E-013
 0.917752E-013
 0.917920E-013
 0.918085E-013
 0.918247E-013
 0.918405E-013
 0.918559E-013
 0.918710E-013
 0.918857E-013
 0.919000E-013
 0.919138E-013
 0.919271E-013
 0.919400E-013
 0.919524E-013
 0.919642E-013
 0.919756E-013
 0.919863E-013
 0.919965E-013
 0.920061E-013
 0.920151E-013
 0.920235E-013
 0.920312E-013
 0.920383E-013
 0.920447E-013
 0.920504E-013
 0.920555E-013
 0.920598E-013
 0.920634E-013
 0.920663E-013
 0.920685E-013
 0.920700E-013
 0.920707E-013
 0.920707E-013
 0.920700E-013
 0.920685E-013
 0.920663E-013
 0.920634E-013
 0.920598E-013
 0.920555E-013
 0.920504E-013
 0.920447E-013
 0.920383E-013
 0.920312E-013
 0.920235E-013
 0.920151E-013
 0.920061E-013
 0.919965E-013
 0.919863E-013
 0.919756E-013
 0.919642E-013
 0.919524E-013
 0.919400E-013
 0.919271E-013
 0.919138E-013
 0.918999E-013
 0.918857E-013
 0.918710E-013
 0.918559E-013
 0.918405E-013
 0.918247E-013
 0.918085E-013
 0.917920E-013
 0.917752E-013
 0.917581E-013
 0.917408E-013
 0.917231E-013
 0.917053E-013
 0.916872E-013
 0.916689E-013
 0.916504E-013
 0.916317E-013
 0.916129E-013
 0.915939E-013
 0.915747E-013
 0.915554E-013
 0.915360E-013
 0.915165E-013
 0.914968E-013
 0.914770E-013
 0.914572E-013
 0.914372E-013
 0.914171E-013
 0.913970E-013
 0.913768E-013
 0.913565E-013
 0.913361E-013
 0.913157E-013
 0.912952E-013
 0.912746E-013
 0.912543E-013
 0.912320E-013
 0.912188E-013
 0.911679E-013
 0.912485E-013
 0.909485E-013
 0.915340E-013
 0.915717E-013
 0.908260E-013
 0.911679E-013
 0.910328E-013
 0.910645E-013
 0.910483E-013
 0.910437E-013
 0.910367E-013
 0.910302E-013
 0.910236E-013
 0.910171E-013
 0.910105E-013
 0.910040E-013
 0.909976E-013
 0.909911E-013
 0.909847E-013
 0.909783E-013
 0.909720E-013
 0.909656E-013
 0.909593E-013
 0.909531E-013
 0.909468E-013
 0.909407E-013
 0.909345E-013
 0.909285E-013
 0.909224E-013
 0.909164E-013
 0.909105E-013
 0.909047E-013
 0.908989E-013
 0.908932E-013
 0.908875E-013
 0.908820E-013
 0.908765E-013
 0.908711E-013
 0.908659E-013
 0.908607E-013
 0.908556E-013
 0.908507E-013
 0.908459E-013
 0.908412E-013
 0.908366E-013
 0.908322E-013
 0.908279E-013
 0.908238E-013
 0.908198E-013
 0.908160E-013
 0.908124E-013
 0.908090E-013
 0.908057E-013
 0.908026E-013
 0.907998E-013
 0.907971E-013
 0.907946E-013
 0.907924E-013
 0.907903E-013
 0.907885E-013
 0.907869E-013
 0.907855E-013
 0.907843E-013
 0.907834E-013
 0.907827E-013
 0.907822E-013
 0.907820E-013
 0.907820E-013
 0.907822E-013
 0.907827E-013
 0.907834E-013
 0.907843E-013
 0.907855E-013
 0.907869E-013
 0.907885E-013
 0.907903E-013
 0.907924E-013
 0.907946E-013
 0.907971E-013
 0.907998E-013
 0.908026E-013
 0.908057E-013
 0.908090E-013
 0.908124E-013
 0.908160E-013
 0.908198E-013
 0.908238E-013
 0.908279E-013
 0.908322E-013
 0.908366E-013
 0.908412E-013
 0.908459E-013
 0.908507E-013
 0.908556E-013
 0.908607E-013
 0.908659E-013
 0.908711E-013
 0.908765E-013
 0.908820E-013
 0.908875E-013
 0.908932E-013
 0.908989E-013
 0.909047E-013
 0.909105E-013
 0.909164E-013
 0.909224E-013
 0.909285E-013
 0.909345E-013
 0.909407E-013
 0.909469E-013
 0.909531E-013
 0.909593E-013
 0.909656E-013
 0.909720E-013
 0.909783E-013
 0.909847E-013
 0.909911E-013
 0.909976E-013
 0.910041E-013
 0.910106E-013
 0.910171E-013
 0.910236E-013
 0.910302E-013
 0.910367E-013
 0.910437E-013
 0.910483E-013
 0.910645E-013
 0.910328E-013
 0.911679E-013
 0.908260E-013
 0.915717E-013
 0.916795E-013
 0.907961E-013
 0.912188E-013
 0.910645E-013
 0.911131E-013
 0.911031E-013
 0.911074E-013
 0.911086E-013
 0.911104E-013
 0.911122E-013
 0.911139E-013
 0.911156E-013
 0.911173E-013
 0.911190E-013
 0.911207E-013
 0.911224E-013
 0.911241E-013
 0.911257E-013
 0.911274E-013
 0.911291E-013
 0.911307E-013
 0.911323E-013
 0.911340E-013
 0.911356E-013
 0.911372E-013
 0.911388E-013
 0.911403E-013
 0.911419E-013
 0.911434E-013
 0.911450E-013
 0.911465E-013
 0.911480E-013
 0.911494E-013
 0.911509E-013
 0.911523E-013
 0.911537E-013
 0.911550E-013
 0.911564E-013
 0.911577E-013
 0.911589E-013
 0.911602E-013
 0.911614E-013
 0.911625E-013
 0.911637E-013
 0.911647E-013
 0.911658E-013
 0.911668E-013
 0.911677E-013
 0.911687E-013
 0.911695E-013
 0.911703E-013
 0.911711E-013
 0.911718E-013
 0.911724E-013
 0.911730E-013
 0.911736E-013
 0.911741E-013
 0.911745E-013
 0.911749E-013
 0.911752E-013
 0.911754E-013
 0.911756E-013
 0.911757E-013
 0.911758E-013
 0.911758E-013
 0.911757E-013
 0.911756E-013
 0.911754E-013
 0.911752E-013
 0.911749E-013
 0.911745E-013
 0.911741E-013
 0.911736E-013
 0.911730E-013
 0.911724E-013
 0.911718E-013
 0.911711E-013
 0.911703E-013
 0.911695E-013
 0.911687E-013
 0.911677E-013
 0.911668E-013
 0.911658E-013
 0.911647E-013
 0.911637E-013
 0.911625E-013
 0.911614E-013
 0.911602E-013
 0.911589E-013
 0.911577E-013
 0.911564E-013
 0.911550E-013
 0.911537E-013
 0.911523E-013
 0.911509E-013
 0.911494E-013
 0.911479E-013
 0.911465E-013
 0.911450E-013
 0.911434E-013
 0.911419E-013
 0.911403E-013
 0.911388E-013
 0.911372E-013
 0.911356E-013
 0.911340E-013
 0.911323E-013
 0.911307E-013
 0.911291E-013
 0.911274E-013
 0.911257E-013
 0.911241E-013
 0.911224E-013
 0.911207E-013
 0.911190E-013
 0.911173E-013
 0.911156E-013
 0.911139E-013
 0.911122E-013
 0.911104E-013
 0.911086E-013
 0.911074E-013
 0.911031E-013
 0.911131E-013
 0.910645E-013
 0.912187E-013
 0.907961E-013
 0.916795E-013
 0.917683E-013
 0.907400E-013
 0.912320E-013
 0.910483E-013
 0.911031E-013
 0.910888E-013
 0.910914E-013
 0.910905E-013
 0.910902E-013
 0.910898E-013
 0.910894E-013
 0.910890E-013
 0.910886E-013
 0.910883E-013
 0.910879E-013
 0.910875E-013
 0.910871E-013
 0.910868E-013
 0.910864E-013
 0.910860E-013
 0.910857E-013
 0.910853E-013
 0.910849E-013
 0.910846E-013
 0.910842E-013
 0.910839E-013
 0.910835E-013
 0.910832E-013
 0.910828E-013
 0.910825E-013
 0.910822E-013
 0.910818E-013
 0.910815E-013
 0.910812E-013
 0.910809E-013
 0.910806E-013
 0.910803E-013
 0.910800E-013
 0.910797E-013
 0.910794E-013
 0.910792E-013
 0.910789E-013
 0.910787E-013
 0.910784E-013
 0.910782E-013
 0.910779E-013
 0.910777E-013
 0.910775E-013
 0.910773E-013
 0.910771E-013
 0.910770E-013
 0.910768E-013
 0.910767E-013
 0.910765E-013
 0.910764E-013
 0.910763E-013
 0.910762E-013
 0.910761E-013
 0.910760E-013
 0.910759E-013
 0.910759E-013
 0.910758E-013
 0.910758E-013
 0.910758E-013
 0.910758E-013
 0.910758E-013
 0.910758E-013
 0.910759E-013
 0.910759E-013
 0.910760E-013
 0.910761E-013
 0.910762E-013
 0.910763E-013
 0.910764E-013
 0.910765E-013
 0.910767E-013
 0.910768E-013
 0.910770E-013
 0.910771E-013
 0.910773E-013
 0.910775E-013
 0.910777E-013
 0.910779E-013
 0.910782E-013
 0.910784E-013
 0.910787E-013
 0.910789E-013
 0.910792E-013
 0.910794E-013
 0.910797E-013
 0.910800E-013
 0.910803E-013
 0.910806E-013
 0.910809E-013
 0.910812E-013
 0.910815E-013
 0.910818E-013
 0.910822E-013
 0.910825E-013
 0.910828E-013
 0.910832E-013
 0.910835E-013
 0.910839E-013
 0.910842E-013
 0.910846E-013
 0.910849E-013
 0.910853E-013
 0.910857E-013
 0.910860E-013
 0.910864E-013
 0.910868E-013
 0.910871E-013
 0.910875E-013
 0.910879E-013
 0.910883E-013
 0.910886E-013
 0.910890E-013
 0.910894E-013
 0.910898E-013
 0.910902E-013
 0.910905E-013
 0.910914E-013
 0.910888E-013
 0.911031E-013
 0.910483E-013
 0.912320E-013
 0.907400E-013
 0.917683E-013
 0.918612E-013
 0.906903E-013
 0.912543E-013
 0.910437E-013
 0.911074E-013
 0.910914E-013
 0.910949E-013
 0.910944E-013
 0.910946E-013
 0.910946E-013
 0.910947E-013
 0.910948E-013
 0.910948E-013
 0.910949E-013
 0.910950E-013
 0.910951E-013
 0.910951E-013
 0.910952E-013
 0.910953E-013
 0.910953E-013
 0.910954E-013
 0.910955E-013
 0.910956E-013
 0.910956E-013
 0.910957E-013
 0.910958E-013
 0.910958E-013
 0.910959E-013
 0.910960E-013
 0.910960E-013
 0.910961E-013
 0.910962E-013
 0.910962E-013
 0.910963E-013
 0.910964E-013
 0.910964E-013
 0.910965E-013
 0.910966E-013
 0.910966E-013
 0.910967E-013
 0.910967E-013
 0.910968E-013
 0.910968E-013
 0.910969E-013
 0.910969E-013
 0.910970E-013
 0.910970E-013
 0.910971E-013
 0.910971E-013
 0.910972E-013
 0.910972E-013
 0.910973E-013
 0.910973E-013
 0.910973E-013
 0.910973E-013
 0.910974E-013
 0.910974E-013
 0.910974E-013
 0.910974E-013
 0.910975E-013
 0.910975E-013
 0.910975E-013
 0.910975E-013
 0.910975E-013
 0.910975E-013
 0.910975E-013
 0.910975E-013
 0.910975E-013
 0.910975E-013
 0.910974E-013
 0.910974E-013
 0.910974E-013
 0.910974E-013
 0.910973E-013
 0.910973E-013
 0.910973E-013
 0.910973E-013
 0.910972E-013
 0.910972E-013
 0.910971E-013
 0.910971E-013
 0.910970E-013
 0.910970E-013
 0.910969E-013
 0.910969E-013
 0.910968E-013
 0.910968E-013
 0.910967E-013
 0.910967E-013
 0.910966E-013
 0.910966E-013
 0.910965E-013
 0.910964E-013
 0.910964E-013
 0.910963E-013
 0.910962E-013
 0.910962E-013
 0.910961E-013
 0.910960E-013
 0.910960E-013
 0.910959E-013
 0.910958E-013
 0.910958E-013
 0.910957E-013
 0.910956E-013
 0.910956E-013
 0.910955E-013
 0.910954E-013
 0.910953E-013
 0.910953E-013
 0.910952E-013
 0.910951E-013
 0.910951E-013
 0.910950E-013
 0.910949E-013
 0.910948E-013
 0.910948E-013
 0.910947E-013
 0.910946E-013
 0.910946E-013
 0.910944E-013
 0.910949E-013
 0.910914E-013
 0.911074E-013
 0.910437E-013
 0.912543E-013
 0.906904E-013
 0.918612E-013
 0.919530E-013
 0.906395E-013
 0.912746E-013
 0.910367E-013
 0.911086E-013
 0.910905E-013
 0.910944E-013
 0.910936E-013
 0.910937E-013
 0.910937E-013
 0.910937E-013
 0.910937E-013
 0.910937E-013
 0.910937E-013
 0.910936E-013
 0.910936E-013
 0.910936E-013
 0.910936E-013
 0.910936E-013
 0.910936E-013
 0.910936E-013
 0.910936E-013
 0.910936E-013
 0.910935E-013
 0.910935E-013
 0.910935E-013
 0.910935E-013
 0.910935E-013
 0.910935E-013
 0.910935E-013
 0.910935E-013
 0.910935E-013
 0.910935E-013
 0.910935E-013
 0.910935E-013
 0.910935E-013
 0.910934E-013
 0.910934E-013
 0.910934E-013
 0.910934E-013
 0.910934E-013
 0.910934E-013
 0.910934E-013
 0.910934E-013
 0.910934E-013
 0.910934E-013
 0.910934E-013
 0.910934E-013
 0.910934E-013
 0.910934E-013
 0.910934E-013
 0.910934E-013
 0.910934E-013
 0.910934E-013
 0.910934E-013
 0.910934E-013
 0.910934E-013
 0.910934E-013
 0.910934E-013
 0.910934E-013
 0.910934E-013
 0.910934E-013
 0.910934E-013
 0.910934E-013
 0.910934E-013
 0.910934E-013
 0.910934E-013
 0.910934E-013
 0.910934E-013
 0.910934E-013
 0.910934E-013
 0.910934E-013
 0.910934E-013
 0.910934E-013
 0.910934E-013
 0.910934E-013
 0.910934E-013
 0.910934E-013
 0.910934E-013
 0.910934E-013
 0.910934E-013
 0.910934E-013
 0.910934E-013
 0.910934E-013
 0.910934E-013
 0.910934E-013
 0.910934E-013
 0.910934E-013
 0.910934E-013
 0.910934E-013
 0.910934E-013
 0.910934E-013
 0.910935E-013
 0.910935E-013
 0.910935E-013
 0.910935E-013
 0.910935E-013
 0.910935E-013
 0.910935E-013
 0.910935E-013
 0.910935E-013
 0.910935E-013
 0.910935E-013
 0.910935E-013
 0.910935E-013
 0.910936E-013
 0.910936E-013
 0.910936E-013
 0.910936E-013
 0.910936E-013
 0.910936E-013
 0.910936E-013
 0.910936E-013
 0.910936E-013
 0.910937E-013
 0.910937E-013
 0.910937E-013
 0.910937E-013
 0.910937E-013
 0.910937E-013
 0.910936E-013
 0.910944E-013
 0.910905E-013
 0.911086E-013
 0.910367E-013
 0.912746E-013
 0.906395E-013
 0.919530E-013
 0.920447E-013
 0.905891E-013
 0.912952E-013
 0.910302E-013
 0.911104E-013
 0.910902E-013
 0.910946E-013
 0.910937E-013
 0.910939E-013
 0.910939E-013
 0.910939E-013
 0.910939E-013
 0.910939E-013
 0.910939E-013
 0.910939E-013
 0.910939E-013
 0.910939E-013
 0.910939E-013
 0.910939E-013
 0.910939E-013
 0.910939E-013
 0.910939E-013
 0.910939E-013
 0.910939E-013
 0.910939E-013
 0.910939E-013
 0.910939E-013
 0.910939E-013
 0.910939E-013
 0.910939E-013
 0.910939E-013
 0.910939E-013
 0.910939E-013
 0.910939E-013
 0.910940E-013
 0.910940E-013
 0.910940E-013
 0.910940E-013
 0.910940E-013
 0.910940E-013
 0.910940E-013
 0.910940E-013
 0.910940E-013
 0.910940E-013
 0.910940E-013
 0.910940E-013
 0.910941E-013
 0.910941E-013
 0.910941E-013
 0.910941E-013
 0.910941E-013
 0.910941E-013
 0.910941E-013
 0.910941E-013
 0.910941E-013
 0.910941E-013
 0.910941E-013
 0.910941E-013
 0.910941E-013
 0.910941E-013
 0.910941E-013
 0.910941E-013
 0.910941E-013
 0.910941E-013
 0.910941E-013
 0.910941E-013
 0.910941E-013
 0.910941E-013
 0.910941E-013
 0.910941E-013
 0.910941E-013
 0.910941E-013
 0.910941E-013
 0.910941E-013
 0.910941E-013
 0.910941E-013
 0.910941E-013
 0.910941E-013
 0.910941E-013
 0.910941E-013
 0.910941E-013
 0.910941E-013
 0.910940E-013
 0.910940E-013
 0.910940E-013
 0.910940E-013
 0.910940E-013
 0.910940E-013
 0.910940E-013
 0.910940E-013
 0.910940E-013
 0.910940E-013
 0.910940E-013
 0.910940E-013
 0.910939E-013
 0.910939E-013
 0.910939E-013
 0.910939E-013
 0.910939E-013
 0.910939E-013
 0.910939E-013
 0.910939E-013
 0.910939E-013
 0.910939E-013
 0.910939E-013
 0.910939E-013
 0.910939E-013
 0.910939E-013
 0.910939E-013
 0.910939E-013
 0.910939E-013
 0.910939E-013
 0.910939E-013
 0.910939E-013
 0.910939E-013
 0.910939E-013
 0.910939E-013
 0.910939E-013
 0.910939E-013
 0.910939E-013
 0.910937E-013
 0.910946E-013
 0.910902E-013
 0.911104E-013
 0.910302E-013
 0.912952E-013
 0.905891E-013
 0.920447E-013
 0.921361E-013
 0.905388E-013
 0.913157E-013
 0.910236E-013
 0.911122E-013
 0.910898E-013
 0.910946E-013
 0.910937E-013
 0.910939E-013
 0.910938E-013
 0.910938E-013
 0.910938E-013
 0.910938E-013
 0.910938E-013
 0.910938E-013
 0.910938E-013
 0.910938E-013
 0.910938E-013
 0.910938E-013
 0.910938E-013
 0.910938E-013
 0.910938E-013
 0.910938E-013
 0.910938E-013
 0.910938E-013
 0.910938E-013
 0.910939E-013
 0.910939E-013
 0.910939E-013
 0.910939E-013
 0.910939E-013
 0.910939E-013
 0.910939E-013
 0.910939E-013
 0.910939E-013
 0.910939E-013
 0.910939E-013
 0.910939E-013
 0.910939E-013
 0.910939E-013
 0.910939E-013
 0.910939E-013
 0.910940E-013
 0.910940E-013
 0.910940E-013
 0.910940E-013
 0.910940E-013
 0.910940E-013
 0.910940E-013
 0.910940E-013
 0.910940E-013
 0.910940E-013
 0.910940E-013
 0.910940E-013
 0.910941E-013
 0.910941E-013
 0.910941E-013
 0.910941E-013
 0.910941E-013
 0.910941E-013
 0.910941E-013
 0.910941E-013
 0.910941E-013
 0.910941E-013
 0.910941E-013
 0.910941E-013
 0.910941E-013
 0.910941E-013
 0.910941E-013
 0.910941E-013
 0.910941E-013
 0.910941E-013
 0.910941E-013
 0.910941E-013
 0.910940E-013
 0.910940E-013
 0.910940E-013
 0.910940E-013
 0.910940E-013
 0.910940E-013
 0.910940E-013
 0.910940E-013
 0.910940E-013
 0.910940E-013
 0.910940E-013
 0.910940E-013
 0.910939E-013
 0.910939E-013
 0.910939E-013
 0.910939E-013
 0.910939E-013
 0.910939E-013
 0.910939E-013
 0.910939E-013
 0.910939E-013
 0.910939E-013
 0.910939E-013
 0.910939E-013
 0.910939E-013
 0.910939E-013
 0.910939E-013
 0.910939E-013
 0.910939E-013
 0.910938E-013
 0.910938E-013
 0.910938E-013
 0.910938E-013
 0.910938E-013
 0.910938E-013
 0.910938E-013
 0.910938E-013
 0.910938E-013
 0.910938E-013
 0.910938E-013
 0.910938E-013
 0.910938E-013
 0.910938E-013
 0.910938E-013
 0.910938E-013
 0.910939E-013
 0.910937E-013
 0.910946E-013
 0.910898E-013
 0.911122E-013
 0.910236E-013
 0.913157E-013
 0.905388E-013
 0.921361E-013
 0.922272E-013
 0.904886E-013
 0.913361E-013
 0.910171E-013
 0.911139E-013
 0.910894E-013
 0.910947E-013
 0.910937E-013
 0.910939E-013
 0.910938E-013
 0.910938E-013
 0.910938E-013
 0.910938E-013
 0.910938E-013
 0.910938E-013
 0.910938E-013
 0.910938E-013
 0.910938E-013
 0.910938E-013
 0.910938E-013
 0.910938E-013
 0.910938E-013
 0.910939E-013
 0.910939E-013
 0.910939E-013
 0.910939E-013
 0.910939E-013
 0.910939E-013
 0.910939E-013
 0.910939E-013
 0.910939E-013
 0.910939E-013
 0.910939E-013
 0.910939E-013
 0.910939E-013
 0.910939E-013
 0.910939E-013
 0.910939E-013
 0.910939E-013
 0.910940E-013
 0.910940E-013
 0.910940E-013
 0.910940E-013
 0.910940E-013
 0.910940E-013
 0.910940E-013
 0.910940E-013
 0.910940E-013
 0.910940E-013