# vtk DataFile Version 3.0
Solution data
ASCII
DATASET STRUCTURED_GRID
DIMENSIONS 128 128 1
POINTS 16384  double
      0.000004      0.000004      0.000000
      0.000012      0.000004      0.000000
      0.000020      0.000004      0.000000
      0.000027      0.000004      0.000000
      0.000035      0.000004      0.000000
      0.000043      0.000004      0.000000
      0.000051      0.000004      0.000000
      0.000059      0.000004      0.000000
      0.000066      0.000004      0.000000
      0.000074      0.000004      0.000000
      0.000082      0.000004      0.000000
      0.000090      0.000004      0.000000
      0.000098      0.000004      0.000000
      0.000105      0.000004      0.000000
      0.000113      0.000004      0.000000
      0.000121      0.000004      0.000000
      0.000129      0.000004      0.000000
      0.000137      0.000004      0.000000
      0.000145      0.000004      0.000000
      0.000152      0.000004      0.000000
      0.000160      0.000004      0.000000
      0.000168      0.000004      0.000000
      0.000176      0.000004      0.000000
      0.000184      0.000004      0.000000
      0.000191      0.000004      0.000000
      0.000199      0.000004      0.000000
      0.000207      0.000004      0.000000
      0.000215      0.000004      0.000000
      0.000223      0.000004      0.000000
      0.000230      0.000004      0.000000
      0.000238      0.000004      0.000000
      0.000246      0.000004      0.000000
      0.000254      0.000004      0.000000
      0.000262      0.000004      0.000000
      0.000270      0.000004      0.000000
      0.000277      0.000004      0.000000
      0.000285      0.000004      0.000000
      0.000293      0.000004      0.000000
      0.000301      0.000004      0.000000
      0.000309      0.000004      0.000000
      0.000316      0.000004      0.000000
      0.000324      0.000004      0.000000
      0.000332      0.000004      0.000000
      0.000340      0.000004      0.000000
      0.000348      0.000004      0.000000
      0.000355      0.000004      0.000000
      0.000363      0.000004      0.000000
      0.000371      0.000004      0.000000
      0.000379      0.000004      0.000000
      0.000387      0.000004      0.000000
      0.000395      0.000004      0.000000
      0.000402      0.000004      0.000000
      0.000410      0.000004      0.000000
      0.000418      0.000004      0.000000
      0.000426      0.000004      0.000000
      0.000434      0.000004      0.000000
      0.000441      0.000004      0.000000
      0.000449      0.000004      0.000000
      0.000457      0.000004      0.000000
      0.000465      0.000004      0.000000
      0.000473      0.000004      0.000000
      0.000480      0.000004      0.000000
      0.000488      0.000004      0.000000
      0.000496      0.000004      0.000000
      0.000504      0.000004      0.000000
      0.000512      0.000004      0.000000
      0.000520      0.000004      0.000000
      0.000527      0.000004      0.000000
      0.000535      0.000004      0.000000
      0.000543      0.000004      0.000000
      0.000551      0.000004      0.000000
      0.000559      0.000004      0.000000
      0.000566      0.000004      0.000000
      0.000574      0.000004      0.000000
      0.000582      0.000004      0.000000
      0.000590      0.000004      0.000000
      0.000598      0.000004      0.000000
      0.000605      0.000004      0.000000
      0.000613      0.000004      0.000000
      0.000621      0.000004      0.000000
      0.000629      0.000004      0.000000
      0.000637      0.000004      0.000000
      0.000645      0.000004      0.000000
      0.000652      0.000004      0.000000
      0.000660      0.000004      0.000000
      0.000668      0.000004      0.000000
      0.000676      0.000004      0.000000
      0.000684      0.000004      0.000000
      0.000691      0.000004      0.000000
      0.000699      0.000004      0.000000
      0.000707      0.000004      0.000000
      0.000715      0.000004      0.000000
      0.000723      0.000004      0.000000
      0.000730      0.000004      0.000000
      0.000738      0.000004      0.000000
      0.000746      0.000004      0.000000
      0.000754      0.000004      0.000000
      0.000762      0.000004      0.000000
      0.000770      0.000004      0.000000
      0.000777      0.000004      0.000000
      0.000785      0.000004      0.000000
      0.000793      0.000004      0.000000
      0.000801      0.000004      0.000000
      0.000809      0.000004      0.000000
      0.000816      0.000004      0.000000
      0.000824      0.000004      0.000000
      0.000832      0.000004      0.000000
      0.000840      0.000004      0.000000
      0.000848      0.000004      0.000000
      0.000855      0.000004      0.000000
      0.000863      0.000004      0.000000
      0.000871      0.000004      0.000000
      0.000879      0.000004      0.000000
      0.000887      0.000004      0.000000
      0.000895      0.000004      0.000000
      0.000902      0.000004      0.000000
      0.000910      0.000004      0.000000
      0.000918      0.000004      0.000000
      0.000926      0.000004      0.000000
      0.000934      0.000004      0.000000
      0.000941      0.000004      0.000000
      0.000949      0.000004      0.000000
      0.000957      0.000004      0.000000
      0.000965      0.000004      0.000000
      0.000973      0.000004      0.000000
      0.000980      0.000004      0.000000
      0.000988      0.000004      0.000000
      0.000996      0.000004      0.000000
      0.000004      0.000012      0.000000
      0.000012      0.000012      0.000000
      0.000020      0.000012      0.000000
      0.000027      0.000012      0.000000
      0.000035      0.000012      0.000000
      0.000043      0.000012      0.000000
      0.000051      0.000012      0.000000
      0.000059      0.000012      0.000000
      0.000066      0.000012      0.000000
      0.000074      0.000012      0.000000
      0.000082      0.000012      0.000000
      0.000090      0.000012      0.000000
      0.000098      0.000012      0.000000
      0.000105      0.000012      0.000000
      0.000113      0.000012      0.000000
      0.000121      0.000012      0.000000
      0.000129      0.000012      0.000000
      0.000137      0.000012      0.000000
      0.000145      0.000012      0.000000
      0.000152      0.000012      0.000000
      0.000160      0.000012      0.000000
      0.000168      0.000012      0.000000
      0.000176      0.000012      0.000000
      0.000184      0.000012      0.000000
      0.000191      0.000012      0.000000
      0.000199      0.000012      0.000000
      0.000207      0.000012      0.000000
      0.000215      0.000012      0.000000
      0.000223      0.000012      0.000000
      0.000230      0.000012      0.000000
      0.000238      0.000012      0.000000
      0.000246      0.000012      0.000000
      0.000254      0.000012      0.000000
      0.000262      0.000012      0.000000
      0.000270      0.000012      0.000000
      0.000277      0.000012      0.000000
      0.000285      0.000012      0.000000
      0.000293      0.000012      0.000000
      0.000301      0.000012      0.000000
      0.000309      0.000012      0.000000
      0.000316      0.000012      0.000000
      0.000324      0.000012      0.000000
      0.000332      0.000012      0.000000
      0.000340      0.000012      0.000000
      0.000348      0.000012      0.000000
      0.000355      0.000012      0.000000
      0.000363      0.000012      0.000000
      0.000371      0.000012      0.000000
      0.000379      0.000012      0.000000
      0.000387      0.000012      0.000000
      0.000395      0.000012      0.000000
      0.000402      0.000012      0.000000
      0.000410      0.000012      0.000000
      0.000418      0.000012      0.000000
      0.000426      0.000012      0.000000
      0.000434      0.000012      0.000000
      0.000441      0.000012      0.000000
      0.000449      0.000012      0.000000
      0.000457      0.000012      0.000000
      0.000465      0.000012      0.000000
      0.000473      0.000012      0.000000
      0.000480      0.000012      0.000000
      0.000488      0.000012      0.000000
      0.000496      0.000012      0.000000
      0.000504      0.000012      0.000000
      0.000512      0.000012      0.000000
      0.000520      0.000012      0.000000
      0.000527      0.000012      0.000000
      0.000535      0.000012      0.000000
      0.000543      0.000012      0.000000
      0.000551      0.000012      0.000000
      0.000559      0.000012      0.000000
      0.000566      0.000012      0.000000
      0.000574      0.000012      0.000000
      0.000582      0.000012      0.000000
      0.000590      0.000012      0.000000
      0.000598      0.000012      0.000000
      0.000605      0.000012      0.000000
      0.000613      0.000012      0.000000
      0.000621      0.000012      0.000000
      0.000629      0.000012      0.000000
      0.000637      0.000012      0.000000
      0.000645      0.000012      0.000000
      0.000652      0.000012      0.000000
      0.000660      0.000012      0.000000
      0.000668      0.000012      0.000000
      0.000676      0.000012      0.000000
      0.000684      0.000012      0.000000
      0.000691      0.000012      0.000000
      0.000699      0.000012      0.000000
      0.000707      0.000012      0.000000
      0.000715      0.000012      0.000000
      0.000723      0.000012      0.000000
      0.000730      0.000012      0.000000
      0.000738      0.000012      0.000000
      0.000746      0.000012      0.000000
      0.000754      0.000012      0.000000
      0.000762      0.000012      0.000000
      0.000770      0.000012      0.000000
      0.000777      0.000012      0.000000
      0.000785      0.000012      0.000000
[...]
POINT_DATA 16384
SCALARS rhoe double
LOOKUP_TABLE default
 0.916182E-013
 0.912635E-013
 0.915368E-013
 0.915658E-013
 0.916744E-013
 0.917605E-013
 0.918517E-013
 0.919416E-013
 0.920314E-013
 0.921209E-013
 0.922102E-013
 0.922991E-013
 0.923878E-013
 0.924761E-013
 0.925641E-013
 0.926518E-013
 0.927390E-013
 0.928259E-013
 0.929123E-013
 0.929983E-013
 0.930837E-013
 0.931687E-013
 0.932530E-013
 0.933368E-013
 0.934199E-013
 0.935023E-013
 0.935839E-013
 0.936647E-013
 0.937446E-013
 0.938237E-013
 0.939017E-013
 0.939787E-013
 0.940545E-013
 0.941292E-013
 0.942025E-013
 0.942746E-013
 0.943452E-013
 0.944143E-013
 0.944818E-013
 0.945476E-013
 0.946117E-013
 0.946740E-013
 0.947343E-013
 0.947926E-013
 0.948488E-013
 0.949028E-013
 0.949546E-013
 0.950040E-013
 0.950510E-013
 0.950954E-013
 0.951373E-013
 0.951766E-013
 0.952131E-013
 0.952468E-013
 0.952776E-013
 0.953056E-013
 0.953305E-013
 0.953525E-013
 0.953714E-013
 0.953872E-013
 0.953999E-013
 0.954094E-013
 0.954158E-013
 0.954190E-013
 0.954190E-013
 0.954158E-013
 0.954094E-013
 0.953999E-013
 0.953872E-013
 0.953714E-013
 0.953525E-013
 0.953305E-013
 0.953056E-013
 0.952776E-013
 0.952468E-013
 0.952131E-013
 0.951766E-013
 0.951373E-013
 0.950955E-013
 0.950510E-013
 0.950040E-013
 0.949546E-013
 0.949028E-013
 0.948488E-013
 0.947926E-013
 0.947343E-013
 0.946740E-013
 0.946117E-013
 0.945476E-013
 0.944818E-013
 0.944143E-013
 0.943452E-013
 0.942746E-013
 0.942026E-013
 0.941292E-013
 0.940545E-013
 0.939787E-013
 0.939017E-013
 0.938237E-013
 0.937447E-013
 0.936647E-013
 0.935839E-013
 0.935023E-013
 0.934199E-013
 0.933368E-013
 0.932530E-013
 0.931687E-013
 0.930837E-013
 0.929983E-013
 0.929123E-013
 0.928259E-013
 0.927390E-013
 0.926518E-013
 0.925641E-013
 0.924761E-013
 0.923878E-013
 0.922991E-013
 0.922102E-013
 0.921209E-013
 0.920314E-013
 0.919416E-013
 0.918518E-013
 0.917605E-013
 0.916744E-013
 0.915658E-013
 0.915368E-013
 0.912635E-013
 0.916182E-013
 0.912635E-013
 0.907947E-013
 0.909464E-013
 0.908164E-013
 0.907887E-013
 0.907306E-013
 0.906803E-013
 0.906285E-013
 0.905772E-013
 0.905259E-013
 0.904749E-013
 0.904240E-013
 0.903732E-013
 0.903227E-013
 0.902723E-013
 0.902222E-013
 0.901723E-013
 0.901226E-013
 0.900731E-013
 0.900240E-013
 0.899751E-013
 0.899265E-013
 0.898782E-013
 0.898303E-013
 0.897827E-013
 0.897356E-013
 0.896888E-013
 0.896426E-013
 0.895968E-013
 0.895516E-013
 0.895069E-013
 0.894628E-013
 0.894194E-013
 0.893766E-013
 0.893346E-013
 0.892933E-013
 0.892529E-013
 0.892133E-013
 0.891746E-013
 0.891369E-013
 0.891002E-013
 0.890645E-013
 0.890299E-013
 0.889965E-013
 0.889643E-013
 0.889333E-013
 0.889036E-013
 0.888753E-013
 0.888484E-013
 0.888229E-013
 0.887988E-013
 0.887763E-013
 0.887554E-013
 0.887361E-013
 0.887184E-013
 0.887023E-013
 0.886880E-013
 0.886754E-013
 0.886646E-013
 0.886555E-013
 0.886482E-013
 0.886428E-013
 0.886391E-013
 0.886373E-013
 0.886373E-013
 0.886391E-013
 0.886428E-013
 0.886482E-013
 0.886555E-013
 0.886646E-013
 0.886754E-013
 0.886880E-013
 0.887024E-013
 0.887184E-013
 0.887361E-013
 0.887554E-013
 0.887764E-013
 0.887989E-013
 0.888229E-013
 0.888484E-013
 0.888753E-013
 0.889037E-013
 0.889333E-013
 0.889643E-013
 0.889965E-013
 0.890299E-013
 0.890645E-013
 0.891002E-013
 0.891369E-013
 0.891746E-013
 0.892133E-013
 0.892529E-013
 0.892934E-013
 0.893346E-013
 0.893767E-013
 0.894194E-013
 0.894628E-013
 0.895069E-013
 0.895516E-013
 0.895968E-013
 0.896426E-013
 0.896889E-013
 0.897356E-013
 0.897827E-013
 0.898303E-013
 0.898782E-013
 0.899265E-013
 0.899751E-013
 0.900240E-013
 0.900732E-013
 0.901226E-013
 0.901723E-013
 0.902222E-013
 0.902724E-013
 0.903227E-013
 0.903733E-013
 0.904240E-013
 0.904749E-013
 0.905260E-013
 0.905772E-013
 0.906285E-013
 0.906803E-013
 0.907306E-013
 0.907887E-013
 0.908164E-013
 0.909464E-013
 0.907947E-013
 0.912635E-013
 0.915368E-013
 0.909464E-013
 0.912611E-013
 0.911722E-013
 0.912291E-013
 0.912421E-013
 0.912663E-013
 0.912879E-013
 0.913099E-013
 0.913318E-013
 0.913536E-013
 0.913754E-013
 0.913971E-013
 0.914187E-013
 0.914402E-013
 0.914616E-013
 0.914829E-013
 0.915041E-013
 0.915253E-013
 0.915462E-013
 0.915671E-013
 0.915879E-013
 0.916085E-013
 0.916289E-013
 0.916492E-013
 0.916693E-013
 0.916893E-013
 0.917090E-013
 0.917286E-013
 0.917479E-013
 0.917669E-013
 0.917857E-013
 0.918042E-013
 0.918225E-013
 0.918404E-013
 0.918580E-013
 0.918753E-013
 0.918921E-013
 0.919086E-013
 0.919247E-013
 0.919404E-013
 0.919556E-013
 0.919703E-013
 0.919846E-013
 0.919983E-013
 0.920115E-013
 0.920242E-013
 0.920363E-013
 0.920478E-013
 0.920586E-013
 0.920689E-013
 0.920785E-013
 0.920874E-013
 0.920956E-013
 0.921032E-013
 0.921100E-013
 0.921161E-013
 0.921215E-013
 0.921261E-013
 0.921300E-013
 0.921331E-013
 0.921354E-013
 0.921370E-013
 0.921378E-013
 0.921378E-013
 0.921370E-013
 0.921354E-013
 0.921331E-013
 0.921300E-013
 0.921261E-013
 0.921215E-013
 0.921161E-013
 0.921100E-013
 0.921032E-013
 0.920956E-013
 0.920874E-013
 0.920785E-013
 0.920689E-013
 0.920586E-013
 0.920477E-013
 0.920363E-013
 0.920242E-013
 0.920115E-013
 0.919983E-013
 0.919846E-013
 0.919703E-013
 0.919556E-013
 0.919404E-013
 0.919247E-013
 0.919086E-013
 0.918921E-013
 0.918752E-013
 0.918580E-013
 0.918404E-013
 0.918225E-013
 0.918042E-013
 0.917857E-013
 0.917669E-013
 0.917478E-013
 0.917285E-013
 0.917090E-013
 0.916893E-013
 0.916693E-013
 0.916492E-013
 0.916289E-013
 0.916085E-013
 0.915879E-013
 0.915671E-013
 0.915462E-013
 0.915252E-013
 0.915041E-013
 0.914829E-013
 0.914616E-013
 0.914402E-013
 0.914187E-013
 0.913971E-013
 0.913754E-013
 0.913536E-013
 0.913318E-013
 0.913099E-013
 0.912879E-013
 0.912662E-013
 0.912421E-013
 0.912290E-013
 0.911722E-013
 0.912611E-013
 0.909464E-013
 0.915368E-013
 0.915658E-013
 0.908164E-013
 0.911722E-013
 0.910245E-013
 0.910611E-013
 0.910420E-013
 0.910372E-013
 0.910292E-013
 0.910219E-013
 0.910144E-013
 0.910071E-013
 0.909997E-013
 0.909924E-013
 0.909851E-013
 0.909778E-013
 0.909706E-013
 0.909634E-013
 0.909562E-013
 0.909491E-013
 0.909420E-013
 0.909350E-013
 0.909279E-013
 0.909210E-013
 0.909141E-013
 0.909072E-013
 0.909004E-013
 0.908937E-013
 0.908870E-013
 0.908804E-013
 0.908739E-013
 0.908675E-013
 0.908611E-013
 0.908549E-013
 0.908487E-013
 0.908426E-013
 0.908367E-013
 0.908309E-013
 0.908252E-013
 0.908196E-013
 0.908142E-013
 0.908089E-013
 0.908037E-013
 0.907988E-013
 0.907939E-013
 0.907893E-013
 0.907848E-013
 0.907806E-013
 0.907765E-013
 0.907726E-013
 0.907689E-013
 0.907655E-013
 0.907623E-013
 0.907592E-013
 0.907565E-013
 0.907539E-013
 0.907516E-013
 0.907495E-013
 0.907477E-013
 0.907462E-013
 0.907449E-013
 0.907438E-013
 0.907430E-013
 0.907425E-013
 0.907422E-013
 0.907422E-013
 0.907425E-013
 0.907430E-013
 0.907438E-013
 0.907449E-013
 0.907462E-013
 0.907477E-013
 0.907495E-013
 0.907516E-013
 0.907539E-013
 0.907565E-013
 0.907592E-013
 0.907623E-013
 0.907655E-013
 0.907690E-013
 0.907726E-013
 0.907765E-013
 0.907806E-013
 0.907849E-013
 0.907893E-013
 0.907940E-013
 0.907988E-013
 0.908037E-013
 0.908089E-013
 0.908142E-013
 0.908196E-013
 0.908252E-013
 0.908309E-013
 0.908367E-013
 0.908426E-013
 0.908487E-013
 0.908549E-013
 0.908611E-013
 0.908675E-013
 0.908739E-013
 0.908804E-013
 0.908870E-013
 0.908937E-013
 0.909004E-013
 0.909072E-013
 0.909141E-013
 0.909210E-013
 0.909280E-013
 0.909350E-013
 0.909420E-013
 0.909491E-013
 0.909562E-013
 0.909634E-013
 0.909706E-013
 0.909778E-013
 0.909851E-013
 0.909924E-013
 0.909997E-013
 0.910071E-013
 0.910144E-013
 0.910219E-013
 0.910292E-013
 0.910372E-013
 0.910420E-013
 0.910611E-013
 0.910245E-013
 0.911722E-013
 0.908164E-013
 0.915658E-013
 0.916744E-013
 0.907887E-013
 0.912291E-013
 0.910611E-013
 0.911169E-013
 0.911048E-013
 0.911101E-013
 0.911115E-013
 0.911137E-013
 0.911157E-013
 0.911178E-013
 0.911198E-013
 0.911219E-013
 0.911239E-013
 0.911259E-013
 0.911279E-013
 0.911299E-013
 0.911319E-013
 0.911339E-013
 0.911359E-013
 0.911379E-013
 0.911398E-013
 0.911417E-013
 0.911437E-013
 0.911456E-013
 0.911475E-013
 0.911493E-013
 0.911512E-013
 0.911530E-013
 0.911549E-013
 0.911566E-013
 0.911584E-013
 0.911602E-013
 0.911619E-013
 0.911636E-013
 0.911652E-013
 0.911668E-013
 0.911684E-013
 0.911700E-013
 0.911715E-013
 0.911730E-013
 0.911744E-013
 0.911758E-013
 0.911771E-013
 0.911784E-013
 0.911797E-013
 0.911809E-013
 0.911820E-013
 0.911831E-013
 0.911841E-013
 0.911851E-013
 0.911860E-013
 0.911868E-013
 0.911876E-013
 0.911883E-013
 0.911889E-013
 0.911895E-013
 0.911900E-013
 0.911905E-013
 0.911908E-013
 0.911911E-013
 0.911913E-013
 0.911915E-013
 0.911916E-013
 0.911916E-013
 0.911915E-013
 0.911913E-013
 0.911911E-013
 0.911908E-013
 0.911905E-013
 0.911900E-013
 0.911895E-013
 0.911889E-013
 0.911883E-013
 0.911876E-013
 0.911868E-013
 0.911860E-013
 0.911851E-013
 0.911841E-013
 0.911831E-013
 0.911820E-013
 0.911809E-013
 0.911797E-013
 0.911784E-013
 0.911771E-013
 0.911758E-013
 0.911744E-013
 0.911730E-013
 0.911715E-013
 0.911700E-013
 0.911684E-013
 0.911668E-013
 0.911652E-013
 0.911636E-013
 0.911619E-013
 0.911602E-013
 0.911584E-013
 0.911566E-013
 0.911548E-013
 0.911530E-013
 0.911512E-013
 0.911493E-013
 0.911475E-013
 0.911456E-013
 0.911437E-013
 0.911417E-013
 0.911398E-013
 0.911379E-013
 0.911359E-013
 0.911339E-013
 0.911319E-013
 0.911299E-013
 0.911279E-013
 0.911259E-013
 0.911239E-013
 0.911219E-013
 0.911198E-013
 0.911178E-013
 0.911157E-013
 0.911137E-013
 0.911115E-013
 0.911101E-013
 0.911048E-013
 0.911169E-013
 0.910611E-013
 0.912290E-013
 0.907887E-013
 0.916744E-013
 0.917605E-013
 0.907306E-013
 0.912421E-013
 0.910420E-013
 0.911048E-013
 0.910875E-013
 0.910908E-013
 0.910896E-013
 0.910892E-013
 0.910887E-013
 0.910882E-013
 0.910877E-013
 0.910873E-013
 0.910868E-013
 0.910863E-013
 0.910858E-013
 0.910854E-013
 0.910849E-013
 0.910844E-013
 0.910840E-013
 0.910835E-013
 0.910830E-013
 0.910826E-013
 0.910821E-013
 0.910817E-013
 0.910812E-013
 0.910808E-013
 0.910804E-013
 0.910799E-013
 0.910795E-013
 0.910791E-013
 0.910787E-013
 0.910783E-013
 0.910779E-013
 0.910775E-013
 0.910771E-013
 0.910767E-013
 0.910763E-013
 0.910760E-013
 0.910756E-013
 0.910753E-013
 0.910749E-013
 0.910746E-013
 0.910743E-013
 0.910740E-013
 0.910737E-013
 0.910734E-013
 0.910732E-013
 0.910729E-013
 0.910727E-013
 0.910725E-013
 0.910723E-013
 0.910721E-013
 0.910719E-013
 0.910717E-013
 0.910716E-013
 0.910714E-013
 0.910713E-013
 0.910712E-013
 0.910711E-013
 0.910711E-013
 0.910710E-013
 0.910710E-013
 0.910710E-013
 0.910710E-013
 0.910710E-013
 0.910710E-013
 0.910711E-013
 0.910711E-013
 0.910712E-013
 0.910713E-013
 0.910714E-013
 0.910716E-013
 0.910717E-013
 0.910719E-013
 0.910721E-013
 0.910723E-013
 0.910725E-013
 0.910727E-013
 0.910729E-013
 0.910732E-013
 0.910734E-013
 0.910737E-013
 0.910740E-013
 0.910743E-013
 0.910746E-013
 0.910749E-013
 0.910753E-013
 0.910756E-013
 0.910760E-013
 0.910763E-013
 0.910767E-013
 0.910771E-013
 0.910775E-013
 0.910779E-013
 0.910783E-013
 0.910787E-013
 0.910791E-013
 0.910795E-013
 0.910799E-013
 0.910804E-013
 0.910808E-013
 0.910812E-013
 0.910817E-013
 0.910821E-013
 0.910826E-013
 0.910830E-013
 0.910835E-013
 0.910840E-013
 0.910844E-013
 0.910849E-013
 0.910854E-013
 0.910858E-013
 0.910863E-013
 0.910868E-013
 0.910873E-013
 0.910877E-013
 0.910882E-013
 0.910887E-013
 0.910892E-013
 0.910896E-013
 0.910908E-013
 0.910875E-013
 0.911048E-013
 0.910420E-013
 0.912421E-013
 0.907306E-013
 0.917605E-013
 0.918517E-013
 0.906803E-013
 0.912663E-013
 0.910372E-013
 0.911101E-013
 0.910908E-013
 0.910953E-013
 0.910945E-013
 0.910948E-013
 0.910949E-013
 0.910950E-013
 0.910951E-013
 0.910952E-013
 0.910953E-013
 0.910954E-013
 0.910955E-013
 0.910956E-013
 0.910957E-013
 0.910958E-013
 0.910959E-013
 0.910960E-013
 0.910960E-013
 0.910961E-013
 0.910962E-013
 0.910963E-013
 0.910964E-013
 0.910965E-013
 0.910966E-013
 0.910967E-013
 0.910968E-013
 0.910969E-013
 0.910970E-013
 0.910970E-013
 0.910971E-013
 0.910972E-013
 0.910973E-013
 0.910974E-013
 0.910975E-013
 0.910975E-013
 0.910976E-013
 0.910977E-013
 0.910978E-013
 0.910978E-013
 0.910979E-013
 0.910980E-013
 0.910980E-013
 0.910981E-013
 0.910982E-013
 0.910982E-013
 0.910983E-013
 0.910983E-013
 0.910984E-013
 0.910984E-013
 0.910985E-013
 0.910985E-013
 0.910985E-013
 0.910986E-013
 0.910986E-013
 0.910986E-013
 0.910986E-013
 0.910986E-013
 0.910987E-013
 0.910987E-013
 0.910987E-013
 0.910987E-013
 0.910987E-013
 0.910987E-013
 0.910986E-013
 0.910986E-013
 0.910986E-013
 0.910986E-013
 0.910986E-013
 0.910985E-013
 0.910985E-013
 0.910985E-013
 0.910984E-013
 0.910984E-013
 0.910983E-013
 0.910983E-013
 0.910982E-013
 0.910982E-013
 0.910981E-013
 0.910980E-013
 0.910980E-013
 0.910979E-013
 0.910978E-013
 0.910978E-013
 0.910977E-013
 0.910976E-013
 0.910975E-013
 0.910975E-013
 0.910974E-013
 0.910973E-013
 0.910972E-013
 0.910971E-013
 0.910970E-013
 0.910970E-013
 0.910969E-013
 0.910968E-013
 0.910967E-013
 0.910966E-013
 0.910965E-013
 0.910964E-013
 0.910963E-013
 0.910962E-013
 0.910961E-013
 0.910960E-013
 0.910960E-013
 0.910959E-013
 0.910958E-013
 0.910957E-013
 0.910956E-013
 0.910955E-013
 0.910954E-013
 0.910953E-013
 0.910952E-013
 0.910951E-013
 0.910950E-013
 0.910949E-013
 0.910948E-013
 0.910945E-013
 0.910953E-013
 0.910908E-013
 0.911101E-013
 0.910372E-013
 0.912662E-013
 0.906803E-013
 0.918518E-013
 0.919416E-013
 0.906285E-013
 0.912879E-013
 0.910292E-013
 0.911115E-013
 0.910896E-013
 0.910945E-013
 0.910935E-013
 0.910937E-013
 0.910936E-013
 0.910936E-013
 0.910936E-013
 0.910936E-013
 0.910936E-013
 0.910936E-013
 0.910935E-013
 0.910935E-013
 0.910935E-013
 0.910935E-013
 0.910935E-013
 0.910935E-013
 0.910934E-013
 0.910934E-013
 0.910934E-013
 0.910934E-013
 0.910934E-013
 0.910934E-013
 0.910934E-013
 0.910933E-013
 0.910933E-013
 0.910933E-013
 0.910933E-013
 0.910933E-013
 0.910933E-013
 0.910933E-013
 0.910933E-013
 0.910933E-013
 0.910932E-013
 0.910932E-013
 0.910932E-013
 0.910932E-013
 0.910932E-013
 0.910932E-013
 0.910932E-013
 0.910932E-013
 0.910932E-013
 0.910932E-013
 0.910932E-013
 0.910932E-013
 0.910932E-013
 0.910932E-013
 0.910932E-013
 0.910932E-013
 0.910932E-013
 0.910932E-013
 0.910932E-013
 0.910932E-013
 0.910932E-013
 0.910932E-013
 0.910932E-013
 0.910932E-013
 0.910932E-013
 0.910932E-013
 0.910932E-013
 0.910932E-013
 0.910932E-013
 0.910932E-013
 0.910932E-013
 0.910932E-013
 0.910932E-013
 0.910932E-013
 0.910932E-013
 0.910932E-013
 0.910932E-013
 0.910932E-013
 0.910932E-013
 0.910932E-013
 0.910932E-013
 0.910932E-013
 0.910932E-013
 0.910932E-013
 0.910932E-013
 0.910932E-013
 0.910932E-013
 0.910932E-013
 0.910932E-013
 0.910932E-013
 0.910932E-013
 0.910932E-013
 0.910932E-013
 0.910932E-013
 0.910933E-013
 0.910933E-013
 0.910933E-013
 0.910933E-013
 0.910933E-013
 0.910933E-013
 0.910933E-013
 0.910933E-013
 0.910933E-013
 0.910934E-013
 0.910934E-013
 0.910934E-013
 0.910934E-013
 0.910934E-013
 0.910934E-013
 0.910934E-013
 0.910935E-013
 0.910935E-013
 0.910935E-013
 0.910935E-013
 0.910935E-013
 0.910935E-013
 0.910936E-013
 0.910936E-013
 0.910936E-013
 0.910936E-013
 0.910936E-013
 0.910936E-013
 0.910937E-013
 0.910935E-013
 0.910945E-013
 0.910896E-013
 0.911115E-013
 0.910292E-013
 0.912879E-013
 0.906285E-013
 0.919416E-013
 0.920314E-013
 0.905772E-013
 0.913099E-013
 0.910219E-013
 0.911137E-013
 0.910892E-013
 0.910948E-013
 0.910937E-013
 0.910939E-013
 0.910939E-013
 0.910939E-013
 0.910939E-013
 0.910939E-013
 0.910939E-013
 0.910939E-013
 0.910939E-013
 0.910939E-013
 0.910939E-013
 0.910939E-013
 0.910939E-013
 0.910939E-013
 0.910939E-013
 0.910939E-013
 0.910939E-013
 0.910939E-013
 0.910939E-013
 0.910939E-013
 0.910939E-013
 0.910939E-013
 0.910939E-013
 0.910940E-013
 0.910940E-013
 0.910940E-013
 0.910940E-013
 0.910940E-013
 0.910940E-013
 0.910940E-013
 0.910940E-013
 0.910940E-013
 0.910940E-013
 0.910940E-013
 0.910940E-013
 0.910940E-013
 0.910941E-013
 0.910941E-013
 0.910941E-013
 0.910941E-013
 0.910941E-013
 0.910941E-013
 0.910941E-013
 0.910941E-013
 0.910941E-013
 0.910941E-013
 0.910941E-013
 0.910941E-013
 0.910942E-013
 0.910942E-013
 0.910942E-013
 0.910942E-013
 0.910942E-013
 0.910942E-013
 0.910942E-013
 0.910942E-013
 0.910942E-013
 0.910942E-013
 0.910942E-013
 0.910942E-013
 0.910942E-013
 0.910942E-013
 0.910942E-013
 0.910942E-013
 0.910942E-013
 0.910942E-013
 0.910941E-013
 0.910941E-013
 0.910941E-013
 0.910941E-013
 0.910941E-013
 0.910941E-013
 0.910941E-013
 0.910941E-013
 0.910941E-013
 0.910941E-013
 0.910941E-013
 0.910941E-013
 0.910940E-013
 0.910940E-013
 0.910940E-013
 0.910940E-013
 0.910940E-013
 0.910940E-013
 0.910940E-013
 0.910940E-013
 0.910940E-013
 0.910940E-013
 0.910940E-013
 0.910940E-013
 0.910940E-013
 0.910939E-013
 0.910939E-013
 0.910939E-013
 0.910939E-013
 0.910939E-013
 0.910939E-013
 0.910939E-013
 0.910939E-013
 0.910939E-013
 0.910939E-013
 0.910939E-013
 0.910939E-013
 0.910939E-013
 0.910939E-013
 0.910939E-013
 0.910939E-013
 0.910939E-013
 0.910939E-013
 0.910939E-013
 0.910939E-013
 0.910939E-013
 0.910939E-013
 0.910937E-013
 0.910948E-013
 0.910892E-013
 0.911137E-013
 0.910219E-013
 0.913099E-013
 0.905772E-013
 0.920314E-013
 0.921209E-013
 0.905259E-013
 0.913318E-013
 0.910144E-013
 0.911157E-013
 0.910887E-013
 0.910949E-013
 0.910936E-013
 0.910939E-013
 0.910938E-013
 0.910938E-013
 0.910938E-013
 0.910938E-013
 0.910938E-013
 0.910938E-013
 0.910938E-013
 0.910938E-013
 0.910938E-013
 0.910938E-013
 0.910938E-013
 0.910938E-013
 0.910938E-013
 0.910938E-013
 0.910938E-013
 0.910938E-013
 0.910938E-013
 0.910938E-013
 0.910939E-013
 0.910939E-013
 0.910939E-013
 0.910939E-013
 0.910939E-013
 0.910939E-013
 0.910939E-013
 0.910939E-013
 0.910939E-013
 0.910939E-013
 0.910939E-013
 0.910939E-013
 0.910939E-013
 0.910939E-013
 0.910939E-013
 0.910939E-013
 0.910939E-013
 0.910940E-013
 0.910940E-013
 0.910940E-013
 0.910940E-013
 0.910940E-013
 0.910940E-013
 0.910940E-013
 0.910940E-013
 0.910940E-013
 0.910940E-013
 0.910940E-013
 0.910940E-013
 0.910940E-013
 0.910940E-013
 0.910940E-013
 0.910941E-013
 0.910941E-013
 0.910941E-013
 0.910941E-013
 0.910941E-013
 0.910941E-013
 0.910941E-013
 0.910941E-013
 0.910941E-013
 0.910941E-013
 0.910940E-013
 0.910940E-013
 0.910940E-013
 0.910940E-013
 0.910940E-013
 0.910940E-013
 0.910940E-013
 0.910940E-013
 0.910940E-013
 0.910940E-013
 0.910940E-013
 0.910940E-013
 0.910940E-013
 0.910940E-013
 0.910940E-013
 0.910939E-013
 0.910939E-013
 0.910939E-013
 0.910939E-013
 0.910939E-013
 0.910939E-013
 0.910939E-013
 0.910939E-013
 0.910939E-013
 0.910939E-013
 0.910939E-013
 0.910939E-013
 0.910939E-013
 0.910939E-013
 0.910939E-013
 0.910939E-013
 0.910939E-013
 0.910938E-013
 0.910938E-013
 0.910938E-013
 0.910938E-013
 0.910938E-013
 0.910938E-013
 0.910938E-013
 0.910938E-013
 0.910938E-013
 0.910938E-013
 0.910938E-013
 0.910938E-013
 0.910938E-013
 0.910938E-013
 0.910938E-013
 0.910938E-013
 0.910938E-013
 0.910938E-013
 0.910939E-013
 0.910936E-013
 0.910949E-013
 0.910887E-013
 0.911157E-013
 0.910144E-013
 0.913318E-013
 0.905260E-013
 0.921209E-013
 0.922102E-013
 0.904749E-013
 0.913536E-013
 0.910071E-013
 0.911178E-013
 0.910882E-013
 0.910950E-013
 0.910936E-013
 0.910939E-013
 0.910938E-013
 0.910938E-013
 0.910938E-013
 0.910938E-013
 0.910938E-013
 0.910938E-013
 0.910938E-013
 0.910938E-013
 0.910938E-013
 0.910938E-013
 0.910938E-013
 0.910938E-013
 0.910938E-013
 0.910939E-013
 0.910939E-013
 0.910939E-013
 0.910939E-013
 0.910939E-013
 0.910939E-013
 0.910939E-013
 0.910939E-013
 0.910939E-013
 0.910939E-013
 0.910939E-013
 0.910939E-013
 0.910939E-013
 0.910939E-013
 0.910939E-013
 0.910939E-013
 0.910939E-013
 0.910939E-013
 0.910940E-013
 0.910940E-013
 0.910940E-013
 0.910940E-013
 0.910940E-013
 0.910940E-013
 0.910940E-013
 0.910940E-013
 0.910940E-013