# vtk DataFile Version 3.0
Solution data
ASCII
DATASET STRUCTURED_GRID
DIMENSIONS 128 128 1
POINTS 16384  double
      0.000004      0.000004      0.000000
      0.000012      0.000004      0.000000
      0.000020      0.000004      0.000000
      0.000027      0.000004      0.000000
      0.000035      0.000004      0.000000
      0.000043      0.000004      0.000000
      0.000051      0.000004      0.000000
      0.000059      0.000004      0.000000
      0.000066      0.000004      0.000000
      0.000074      0.000004      0.000000
      0.000082      0.000004      0.000000
      0.000090      0.000004      0.000000
      0.000098      0.000004      0.000000
      0.000105      0.000004      0.000000
      0.000113      0.000004      0.000000
      0.000121      0.000004      0.000000
      0.000129      0.000004      0.000000
      0.000137      0.000004      0.000000
      0.000145      0.000004      0.000000
      0.000152      0.000004      0.000000
      0.000160      0.000004      0.000000
      0.000168      0.000004      0.000000
      0.000176      0.000004      0.000000
      0.000184      0.000004      0.000000
      0.000191      0.000004      0.000000
      0.000199      0.000004      0.000000
      0.000207      0.000004      0.000000
      0.000215      0.000004      0.000000
      0.000223      0.000004      0.000000
      0.000230      0.000004      0.000000
      0.000238      0.000004      0.000000
      0.000246      0.000004      0.000000
      0.000254      0.000004      0.000000
      0.000262      0.000004      0.000000
      0.000270      0.000004      0.000000
      0.000277      0.000004      0.000000
      0.000285      0.000004      0.000000
      0.000293      0.000004      0.000000
      0.000301      0.000004      0.000000
      0.000309      0.000004      0.000000
      0.000316      0.000004      0.000000
      0.000324      0.000004      0.000000
      0.000332      0.000004      0.000000
      0.000340      0.000004      0.000000
      0.000348      0.000004      0.000000
      0.000355      0.000004      0.000000
      0.000363      0.000004      0.000000
      0.000371      0.000004      0.000000
      0.000379      0.000004      0.000000
      0.000387      0.000004      0.000000
      0.000395      0.000004      0.000000
      0.000402      0.000004      0.000000
      0.000410      0.000004      0.000000
      0.000418      0.000004      0.000000
      0.000426      0.000004      0.000000
      0.000434      0.000004      0.000000
      0.000441      0.000004      0.000000
      0.000449      0.000004      0.000000
      0.000457      0.000004      0.000000
      0.000465      0.000004      0.000000
      0.000473      0.000004      0.000000
      0.000480      0.000004      0.000000
      0.000488      0.000004      0.000000
      0.000496      0.000004      0.000000
      0.000504      0.000004      0.000000
      0.000512      0.000004      0.000000
      0.000520      0.000004      0.000000
      0.000527      0.000004      0.000000
      0.000535      0.000004      0.000000
      0.000543      0.000004      0.000000
      0.000551      0.000004      0.000000
      0.000559      0.000004      0.000000
      0.000566      0.000004      0.000000
      0.000574      0.000004      0.000000
      0.000582      0.000004      0.000000
      0.000590      0.000004      0.000000
      0.000598      0.000004      0.000000
      0.000605      0.000004      0.000000
      0.000613      0.000004      0.000000
      0.000621      0.000004      0.000000
      0.000629      0.000004      0.000000
      0.000637      0.000004      0.000000
      0.000645      0.000004      0.000000
      0.000652      0.000004      0.000000
      0.000660      0.000004      0.000000
      0.000668      0.000004      0.000000
      0.000676      0.000004      0.000000
      0.000684      0.000004      0.000000
      0.000691      0.000004      0.000000
      0.000699      0.000004      0.000000
      0.000707      0.000004      0.000000
      0.000715      0.000004      0.000000
      0.000723      0.000004      0.000000
      0.000730      0.000004      0.000000
      0.000738      0.000004      0.000000
      0.000746      0.000004      0.000000
      0.000754      0.000004      0.000000
      0.000762      0.000004      0.000000
      0.000770      0.000004      0.000000
      0.000777      0.000004      0.000000
      0.000785      0.000004      0.000000
      0.000793      0.000004      0.000000
      0.000801      0.000004      0.000000
      0.000809      0.000004      0.000000
      0.000816      0.000004      0.000000
      0.000824      0.000004      0.000000
      0.000832      0.000004      0.000000
      0.000840      0.000004      0.000000
      0.000848      0.000004      0.000000
      0.000855      0.000004      0.000000
      0.000863      0.000004      0.000000
      0.000871      0.000004      0.000000
      0.000879      0.000004      0.000000
      0.000887      0.000004      0.000000
      0.000895      0.000004      0.000000
      0.000902      0.000004      0.000000
      0.000910      0.000004      0.000000
      0.000918      0.000004      0.000000
      0.000926      0.000004      0.000000
      0.000934      0.000004      0.000000
      0.000941      0.000004      0.000000
      0.000949      0.000004      0.000000
      0.000957      0.000004      0.000000
      0.000965      0.000004      0.000000
      0.000973      0.000004      0.000000
      0.000980      0.000004      0.000000
      0.000988      0.000004      0.000000
      0.000996      0.000004      0.000000
      0.000004      0.000012      0.000000
      0.000012      0.000012      0.000000
      0.000020      0.000012      0.000000
      0.000027      0.000012      0.000000
      0.000035      0.000012      0.000000
      0.000043      0.000012      0.000000
      0.000051      0.000012      0.000000
      0.000059      0.000012      0.000000
      0.000066      0.000012      0.000000
      0.000074      0.000012      0.000000
      0.000082      0.000012      0.000000
      0.000090      0.000012      0.000000
      0.000098      0.000012      0.000000
      0.000105      0.000012      0.000000
      0.000113      0.000012      0.000000
      0.000121      0.000012      0.000000
      0.000129      0.000012      0.000000
      0.000137      0.000012      0.000000
      0.000145      0.000012      0.000000
      0.000152      0.000012      0.000000
      0.000160      0.000012      0.000000
      0.000168      0.000012      0.000000
      0.000176      0.000012      0.000000
      0.000184      0.000012      0.000000
      0.000191      0.000012      0.000000
      0.000199      0.000012      0.000000
      0.000207      0.000012      0.000000
      0.000215      0.000012      0.000000
      0.000223      0.000012      0.000000
      0.000230      0.000012      0.000000
      0.000238      0.000012      0.000000
      0.000246      0.000012      0.000000
      0.000254      0.000012      0.000000
      0.000262      0.000012      0.000000
      0.000270      0.000012      0.000000
      0.000277      0.000012      0.000000
      0.000285      0.000012      0.000000
      0.000293      0.000012      0.000000
      0.000301      0.000012      0.000000
      0.000309      0.000012      0.000000
      0.000316      0.000012      0.000000
      0.000324      0.000012      0.000000
      0.000332      0.000012      0.000000
      0.000340      0.000012      0.000000
      0.000348      0.000012      0.000000
      0.000355      0.000012      0.000000
      0.000363      0.000012      0.000000
      0.000371      0.000012      0.000000
      0.000379      0.000012      0.000000
      0.000387      0.000012      0.000000
      0.000395      0.000012      0.000000
      0.000402      0.000012      0.000000
      0.000410      0.000012      0.000000
      0.000418      0.000012      0.000000
      0.000426      0.000012      0.000000
      0.000434      0.000012      0.000000
      0.000441      0.000012      0.000000
      0.000449      0.000012      0.000000
      0.000457      0.000012      0.000000
      0.000465      0.000012      0.000000
      0.000473      0.000012      0.000000
      0.000480      0.000012      0.000000
      0.000488      0.000012      0.000000
      0.000496      0.000012      0.000000
      0.000504      0.000012      0.000000
      0.000512      0.000012      0.000000
      0.000520      0.000012      0.000000
      0.000527      0.000012      0.000000
      0.000535      0.000012      0.000000
      0.000543      0.000012      0.000000
      0.000551      0.000012      0.000000
      0.000559      0.000012      0.000000
      0.000566      0.000012      0.000000
      0.000574      0.000012      0.000000
      0.000582      0.000012      0.000000
      0.000590      0.000012      0.000000
      0.000598      0.000012      0.000000
      0.000605      0.000012      0.000000
      0.000613      0.000012      0.000000
      0.000621      0.000012      0.000000
      0.000629      0.000012      0.000000
      0.000637      0.000012      0.000000
      0.000645      0.000012      0.000000
      0.000652      0.000012      0.000000
      0.000660      0.000012      0.000000
      0.000668      0.000012      0.000000
      0.000676      0.000012      0.000000
      0.000684      0.000012      0.000000
      0.000691      0.000012      0.000000
      0.000699      0.000012      0.000000
      0.000707      0.000012      0.000000
      0.000715      0.000012      0.000000
      0.000723      0.000012      0.000000
      0.000730      0.000012      0.000000
      0.000738      0.000012      0.000000
      0.000746      0.000012      0.000000
      0.000754      0.000012      0.000000
      0.000762      0.000012      0.000000
      0.000770      0.000012      0.000000
      0.000777      0.000012      0.000000
      0.000785      0.000012      0.000000
[...]
POINT_DATA 16384
SCALARS rhoe double
LOOKUP_TABLE default
 0.915187E-013
 0.913127E-013
 0.915066E-013
 0.915882E-013
 0.916946E-013
 0.917961E-013
 0.918982E-013
 0.919999E-013
 0.921013E-013
 0.922025E-013
 0.923034E-013
 0.924041E-013
 0.925044E-013
 0.926044E-013
 0.927040E-013
 0.928033E-013
 0.929022E-013
 0.930007E-013
 0.930988E-013
 0.931964E-013
 0.932934E-013
 0.933899E-013
 0.934858E-013
 0.935811E-013
 0.936756E-013
 0.937694E-013
 0.938624E-013
 0.939545E-013
 0.940456E-013
 0.941358E-013
 0.942249E-013
 0.943128E-013
 0.943994E-013
 0.944848E-013
 0.945687E-013
 0.946511E-013
 0.947320E-013
 0.948111E-013
 0.948885E-013
 0.949640E-013
 0.950375E-013
 0.951090E-013
 0.951782E-013
 0.952452E-013
 0.953098E-013
 0.953719E-013
 0.954315E-013
 0.954883E-013
 0.955424E-013
 0.955936E-013
 0.956419E-013
 0.956871E-013
 0.957291E-013
 0.957680E-013
 0.958036E-013
 0.958358E-013
 0.958646E-013
 0.958899E-013
 0.959118E-013
 0.959300E-013
 0.959446E-013
 0.959557E-013
 0.959630E-013
 0.959667E-013
 0.959667E-013
 0.959630E-013
 0.959556E-013
 0.959446E-013
 0.959300E-013
 0.959117E-013
 0.958899E-013
 0.958646E-013
 0.958358E-013
 0.958035E-013
 0.957680E-013
 0.957291E-013
 0.956870E-013
 0.956418E-013
 0.955936E-013
 0.955424E-013
 0.954883E-013
 0.954314E-013
 0.953719E-013
 0.953098E-013
 0.952452E-013
 0.951782E-013
 0.951089E-013
 0.950375E-013
 0.949640E-013
 0.948885E-013
 0.948111E-013
 0.947319E-013
 0.946511E-013
 0.945686E-013
 0.944847E-013
 0.943994E-013
 0.943127E-013
 0.942248E-013
 0.941357E-013
 0.940456E-013
 0.939544E-013
 0.938623E-013
 0.937693E-013
 0.936755E-013
 0.935810E-013
 0.934857E-013
 0.933898E-013
 0.932934E-013
 0.931963E-013
 0.930987E-013
 0.930007E-013
 0.929022E-013
 0.928033E-013
 0.927040E-013
 0.926043E-013
 0.925043E-013
 0.924040E-013
 0.923034E-013
 0.922025E-013
 0.921013E-013
 0.919998E-013
 0.918982E-013
 0.917961E-013
 0.916946E-013
 0.915882E-013
 0.915065E-013
 0.913127E-013
 0.915186E-013
 0.913127E-013
 0.908878E-013
 0.909764E-013
 0.909041E-013
 0.908704E-013
 0.908294E-013
 0.907897E-013
 0.907499E-013
 0.907103E-013
 0.906708E-013
 0.906314E-013
 0.905922E-013
 0.905531E-013
 0.905141E-013
 0.904752E-013
 0.904365E-013
 0.903980E-013
 0.903596E-013
 0.903215E-013
 0.902835E-013
 0.902457E-013
 0.902082E-013
 0.901709E-013
 0.901338E-013
 0.900971E-013
 0.900606E-013
 0.900245E-013
 0.899887E-013
 0.899533E-013
 0.899183E-013
 0.898837E-013
 0.898496E-013
 0.898160E-013
 0.897829E-013
 0.897503E-013
 0.897184E-013
 0.896870E-013
 0.896563E-013
 0.896264E-013
 0.895971E-013
 0.895686E-013
 0.895410E-013
 0.895141E-013
 0.894882E-013
 0.894632E-013
 0.894392E-013
 0.894161E-013
 0.893941E-013
 0.893732E-013
 0.893534E-013
 0.893347E-013
 0.893173E-013
 0.893010E-013
 0.892860E-013
 0.892722E-013
 0.892598E-013
 0.892486E-013
 0.892388E-013
 0.892304E-013
 0.892234E-013
 0.892177E-013
 0.892135E-013
 0.892106E-013
 0.892092E-013
 0.892092E-013
 0.892106E-013
 0.892135E-013
 0.892177E-013
 0.892234E-013
 0.892304E-013
 0.892389E-013
 0.892487E-013
 0.892598E-013
 0.892722E-013
 0.892860E-013
 0.893010E-013
 0.893173E-013
 0.893348E-013
 0.893534E-013
 0.893732E-013
 0.893942E-013
 0.894162E-013
 0.894392E-013
 0.894632E-013
 0.894882E-013
 0.895142E-013
 0.895410E-013
 0.895687E-013
 0.895972E-013
 0.896264E-013
 0.896564E-013
 0.896871E-013
 0.897184E-013
 0.897504E-013
 0.897829E-013
 0.898160E-013
 0.898497E-013
 0.898838E-013
 0.899184E-013
 0.899534E-013
 0.899888E-013
 0.900245E-013
 0.900607E-013
 0.900971E-013
 0.901339E-013
 0.901709E-013
 0.902082E-013
 0.902458E-013
 0.902835E-013
 0.903215E-013
 0.903597E-013
 0.903980E-013
 0.904366E-013
 0.904753E-013
 0.905141E-013
 0.905531E-013
 0.905922E-013
 0.906315E-013
 0.906709E-013
 0.907104E-013
 0.907500E-013
 0.907897E-013
 0.908294E-013
 0.908704E-013
 0.909041E-013
 0.909764E-013
 0.908878E-013
 0.913127E-013
 0.915066E-013
 0.909764E-013
 0.911699E-013
 0.911350E-013
 0.911551E-013
 0.911646E-013
 0.911757E-013
 0.911865E-013
 0.911974E-013
 0.912082E-013
 0.912190E-013
 0.912297E-013
 0.912404E-013
 0.912511E-013
 0.912618E-013
 0.912723E-013
 0.912829E-013
 0.912934E-013
 0.913038E-013
 0.913142E-013
 0.913245E-013
 0.913348E-013
 0.913450E-013
 0.913551E-013
 0.913652E-013
 0.913751E-013
 0.913850E-013
 0.913948E-013
 0.914045E-013
 0.914140E-013
 0.914235E-013
 0.914328E-013
 0.914420E-013
 0.914510E-013
 0.914599E-013
 0.914687E-013
 0.914772E-013
 0.914856E-013
 0.914938E-013
 0.915018E-013
 0.915096E-013
 0.915172E-013
 0.915245E-013
 0.915316E-013
 0.915384E-013
 0.915450E-013
 0.915513E-013
 0.915573E-013
 0.915630E-013
 0.915684E-013
 0.915735E-013
 0.915783E-013
 0.915827E-013
 0.915868E-013
 0.915906E-013
 0.915940E-013
 0.915970E-013
 0.915997E-013
 0.916020E-013
 0.916039E-013
 0.916055E-013
 0.916066E-013
 0.916074E-013
 0.916078E-013
 0.916078E-013
 0.916074E-013
 0.916066E-013
 0.916055E-013
 0.916039E-013
 0.916020E-013
 0.915997E-013
 0.915970E-013
 0.915940E-013
 0.915906E-013
 0.915868E-013
 0.915827E-013
 0.915783E-013
 0.915735E-013
 0.915684E-013
 0.915630E-013
 0.915573E-013
 0.915512E-013
 0.915450E-013
 0.915384E-013
 0.915316E-013
 0.915245E-013
 0.915171E-013
 0.915096E-013
 0.915018E-013
 0.914938E-013
 0.914856E-013
 0.914772E-013
 0.914687E-013
 0.914599E-013
 0.914510E-013
 0.914420E-013
 0.914328E-013
 0.914235E-013
 0.914140E-013
 0.914045E-013
 0.913948E-013
 0.913850E-013
 0.913751E-013
 0.913652E-013
 0.913551E-013
 0.913450E-013
 0.913348E-013
 0.913245E-013
 0.913142E-013
 0.913038E-013
 0.912934E-013
 0.912829E-013
 0.912723E-013
 0.912617E-013
 0.912511E-013
 0.912404E-013
 0.912297E-013
 0.912190E-013
 0.912082E-013
 0.911974E-013
 0.911865E-013
 0.911757E-013
 0.911646E-013
 0.911551E-013
 0.911350E-013
 0.911699E-013
 0.909764E-013
 0.915065E-013
 0.915882E-013
 0.909041E-013
 0.911350E-013
 0.910737E-013
 0.910831E-013
 0.910789E-013
 0.910769E-013
 0.910746E-013
 0.910723E-013
 0.910700E-013
 0.910678E-013
 0.910655E-013
 0.910633E-013
 0.910611E-013
 0.910588E-013
 0.910566E-013
 0.910544E-013
 0.910522E-013
 0.910500E-013
 0.910479E-013
 0.910457E-013
 0.910436E-013
 0.910414E-013
 0.910393E-013
 0.910372E-013
 0.910351E-013
 0.910331E-013
 0.910310E-013
 0.910290E-013
 0.910270E-013
 0.910251E-013
 0.910231E-013
 0.910212E-013
 0.910193E-013
 0.910175E-013
 0.910157E-013
 0.910139E-013
 0.910122E-013
 0.910105E-013
 0.910088E-013
 0.910072E-013
 0.910056E-013
 0.910041E-013
 0.910027E-013
 0.910012E-013
 0.909999E-013
 0.909986E-013
 0.909974E-013
 0.909962E-013
 0.909951E-013
 0.909940E-013
 0.909930E-013
 0.909921E-013
 0.909913E-013
 0.909905E-013
 0.909898E-013
 0.909892E-013
 0.909886E-013
 0.909881E-013
 0.909877E-013
 0.909874E-013
 0.909872E-013
 0.909870E-013
 0.909870E-013
 0.909870E-013
 0.909870E-013
 0.909872E-013
 0.909874E-013
 0.909877E-013
 0.909881E-013
 0.909886E-013
 0.909892E-013
 0.909898E-013
 0.909905E-013
 0.909913E-013
 0.909921E-013
 0.909930E-013
 0.909940E-013
 0.909951E-013
 0.909962E-013
 0.909974E-013
 0.909986E-013
 0.909999E-013
 0.910013E-013
 0.910027E-013
 0.910041E-013
 0.910056E-013
 0.910072E-013
 0.910088E-013
 0.910105E-013
 0.910122E-013
 0.910139E-013
 0.910157E-013
 0.910175E-013
 0.910194E-013
 0.910212E-013
 0.910231E-013
 0.910251E-013
 0.910270E-013
 0.910290E-013
 0.910311E-013
 0.910331E-013
 0.910351E-013
 0.910372E-013
 0.910393E-013
 0.910414E-013
 0.910436E-013
 0.910457E-013
 0.910479E-013
 0.910500E-013
 0.910522E-013
 0.910544E-013
 0.910566E-013
 0.910588E-013
 0.910611E-013
 0.910633E-013
 0.910655E-013
 0.910678E-013
 0.910700E-013
 0.910723E-013
 0.910746E-013
 0.910769E-013
 0.910789E-013
 0.910831E-013
 0.910737E-013
 0.911350E-013
 0.909041E-013
 0.915882E-013
 0.916946E-013
 0.908704E-013
 0.911551E-013
 0.910831E-013
 0.910980E-013
 0.910960E-013
 0.910967E-013
 0.910971E-013
 0.910975E-013
 0.910978E-013
 0.910982E-013
 0.910986E-013
 0.910990E-013
 0.910994E-013
 0.910997E-013
 0.911001E-013
 0.911005E-013
 0.911009E-013
 0.911012E-013
 0.911016E-013
 0.911020E-013
 0.911023E-013
 0.911027E-013
 0.911031E-013
 0.911034E-013
 0.911038E-013
 0.911041E-013
 0.911045E-013
 0.911048E-013
 0.911052E-013
 0.911055E-013
 0.911058E-013
 0.911062E-013
 0.911065E-013
 0.911068E-013
 0.911071E-013
 0.911074E-013
 0.911077E-013
 0.911080E-013
 0.911083E-013
 0.911086E-013
 0.911089E-013
 0.911092E-013
 0.911094E-013
 0.911097E-013
 0.911099E-013
 0.911101E-013
 0.911104E-013
 0.911106E-013
 0.911108E-013
 0.911110E-013
 0.911111E-013
 0.911113E-013
 0.911115E-013
 0.911116E-013
 0.911117E-013
 0.911119E-013
 0.911120E-013
 0.911120E-013
 0.911121E-013
 0.911122E-013
 0.911122E-013
 0.911122E-013
 0.911123E-013
 0.911123E-013
 0.911122E-013
 0.911122E-013
 0.911122E-013
 0.911121E-013
 0.911120E-013
 0.911120E-013
 0.911119E-013
 0.911117E-013
 0.911116E-013
 0.911115E-013
 0.911113E-013
 0.911112E-013
 0.911110E-013
 0.911108E-013
 0.911106E-013
 0.911104E-013
 0.911101E-013
 0.911099E-013
 0.911097E-013
 0.911094E-013
 0.911092E-013
 0.911089E-013
 0.911086E-013
 0.911083E-013
 0.911080E-013
 0.911077E-013
 0.911074E-013
 0.911071E-013
 0.911068E-013
 0.911065E-013
 0.911062E-013
 0.911058E-013
 0.911055E-013
 0.911052E-013
 0.911048E-013
 0.911045E-013
 0.911041E-013
 0.911038E-013
 0.911034E-013
 0.911031E-013
 0.911027E-013
 0.911023E-013
 0.911020E-013
 0.911016E-013
 0.911012E-013
 0.911009E-013
 0.911005E-013
 0.911001E-013
 0.910997E-013
 0.910994E-013
 0.910990E-013
 0.910986E-013
 0.910982E-013
 0.910978E-013
 0.910975E-013
 0.910971E-013
 0.910967E-013
 0.910960E-013
 0.910980E-013
 0.910831E-013
 0.911551E-013
 0.908704E-013
 0.916946E-013
 0.917961E-013
 0.908294E-013
 0.911646E-013
 0.910789E-013
 0.910960E-013
 0.910931E-013
 0.910935E-013
 0.910934E-013
 0.910933E-013
 0.910933E-013
 0.910932E-013
 0.910932E-013
 0.910931E-013
 0.910930E-013
 0.910930E-013
 0.910929E-013
 0.910929E-013
 0.910928E-013
 0.910928E-013
 0.910927E-013
 0.910927E-013
 0.910926E-013
 0.910926E-013
 0.910925E-013
 0.910925E-013
 0.910924E-013
 0.910924E-013
 0.910924E-013
 0.910923E-013
 0.910923E-013
 0.910922E-013
 0.910922E-013
 0.910922E-013
 0.910921E-013
 0.910921E-013
 0.910921E-013
 0.910920E-013
 0.910920E-013
 0.910920E-013
 0.910919E-013
 0.910919E-013
 0.910919E-013
 0.910919E-013
 0.910918E-013
 0.910918E-013
 0.910918E-013
 0.910918E-013
 0.910918E-013
 0.910917E-013
 0.910917E-013
 0.910917E-013
 0.910917E-013
 0.910917E-013
 0.910917E-013
 0.910917E-013
 0.910917E-013
 0.910917E-013
 0.910917E-013
 0.910917E-013
 0.910917E-013
 0.910917E-013
 0.910916E-013
 0.910916E-013
 0.910916E-013
 0.910916E-013
 0.910916E-013
 0.910916E-013
 0.910917E-013
 0.910917E-013
 0.910917E-013
 0.910917E-013
 0.910917E-013
 0.910917E-013
 0.910917E-013
 0.910917E-013
 0.910917E-013
 0.910917E-013
 0.910917E-013
 0.910917E-013
 0.910917E-013
 0.910918E-013
 0.910918E-013
 0.910918E-013
 0.910918E-013
 0.910918E-013
 0.910919E-013
 0.910919E-013
 0.910919E-013
 0.910919E-013
 0.910920E-013
 0.910920E-013
 0.910920E-013
 0.910921E-013
 0.910921E-013
 0.910921E-013
 0.910922E-013
 0.910922E-013
 0.910922E-013
 0.910923E-013
 0.910923E-013
 0.910924E-013
 0.910924E-013
 0.910925E-013
 0.910925E-013
 0.910925E-013
 0.910926E-013
 0.910926E-013
 0.910927E-013
 0.910927E-013
 0.910928E-013
 0.910928E-013
 0.910929E-013
 0.910929E-013
 0.910930E-013
 0.910930E-013
 0.910931E-013
 0.910932E-013
 0.910932E-013
 0.910933E-013
 0.910933E-013
 0.910934E-013
 0.910935E-013
 0.910931E-013
 0.910960E-013
 0.910789E-013
 0.911646E-013
 0.908294E-013
 0.917961E-013
 0.918982E-013
 0.907897E-013
 0.911757E-013
 0.910769E-013
 0.910967E-013
 0.910935E-013
 0.910939E-013
 0.910939E-013
 0.910939E-013
 0.910939E-013
 0.910939E-013
 0.910939E-013
 0.910939E-013
 0.910939E-013
 0.910939E-013
 0.910939E-013
 0.910940E-013
 0.910940E-013
 0.910940E-013
 0.910940E-013
 0.910940E-013
 0.910940E-013
 0.910940E-013
 0.910940E-013
 0.910940E-013
 0.910940E-013
 0.910940E-013
 0.910941E-013
 0.910941E-013
 0.910941E-013
 0.910941E-013
 0.910941E-013
 0.910941E-013
 0.910941E-013
 0.910942E-013
 0.910942E-013
 0.910942E-013
 0.910942E-013
 0.910942E-013
 0.910943E-013
 0.910943E-013
 0.910943E-013
 0.910943E-013
 0.910943E-013
 0.910944E-013
 0.910944E-013
 0.910944E-013
 0.910944E-013
 0.910944E-013
 0.910944E-013
 0.910945E-013
 0.910945E-013
 0.910945E-013
 0.910945E-013
 0.910945E-013
 0.910945E-013
 0.910946E-013
 0.910946E-013
 0.910946E-013
 0.910946E-013
 0.910946E-013
 0.910946E-013
 0.910946E-013
 0.910946E-013
 0.910946E-013
 0.910946E-013
 0.910946E-013
 0.910946E-013
 0.910946E-013
 0.910946E-013
 0.910946E-013
 0.910946E-013
 0.910946E-013
 0.910945E-013
 0.910945E-013
 0.910945E-013
 0.910945E-013
 0.910945E-013
 0.910945E-013
 0.910944E-013
 0.910944E-013
 0.910944E-013
 0.910944E-013
 0.910944E-013
 0.910943E-013
 0.910943E-013
 0.910943E-013
 0.910943E-013
 0.910943E-013
 0.910942E-013
 0.910942E-013
 0.910942E-013
 0.910942E-013
 0.910942E-013
 0.910941E-013
 0.910941E-013
 0.910941E-013
 0.910941E-013
 0.910941E-013
 0.910941E-013
 0.910941E-013
 0.910941E-013
 0.910940E-013
 0.910940E-013
 0.910940E-013
 0.910940E-013
 0.910940E-013
 0.910940E-013
 0.910940E-013
 0.910940E-013
 0.910940E-013
 0.910940E-013
 0.910939E-013
 0.910939E-013
 0.910939E-013
 0.910939E-013
 0.910939E-013
 0.910939E-013
 0.910939E-013
 0.910939E-013
 0.910939E-013
 0.910939E-013
 0.910935E-013
 0.910967E-013
 0.910769E-013
 0.911757E-013
 0.907897E-013
 0.918982E-013
 0.919999E-013
 0.907499E-013
 0.911865E-013
 0.910746E-013
 0.910971E-013
 0.910934E-013
 0.910939E-013
 0.910938E-013
 0.910938E-013
 0.910938E-013
 0.910938E-013
 0.910938E-013
 0.910938E-013
 0.910938E-013
 0.910938E-013
 0.910938E-013
 0.910938E-013
 0.910938E-013
 0.910938E-013
 0.910938E-013
 0.910938E-013
 0.910938E-013
 0.910938E-013
 0.910938E-013
 0.910938E-013
 0.910939E-013
 0.910939E-013
 0.910939E-013
 0.910939E-013
 0.910939E-013
 0.910939E-013
 0.910939E-013
 0.910939E-013
 0.910939E-013
 0.910939E-013
 0.910939E-013
 0.910940E-013
 0.910940E-013
 0.910940E-013
 0.910940E-013
 0.910940E-013
 0.910940E-013
 0.910941E-013
 0.910941E-013
 0.910941E-013
 0.910941E-013
 0.910941E-013
 0.910942E-013
 0.910942E-013
 0.910942E-013
 0.910942E-013
 0.910942E-013
 0.910942E-013
 0.910943E-013
 0.910943E-013
 0.910943E-013
 0.910943E-013
 0.910943E-013
 0.910943E-013
 0.910943E-013
 0.910943E-013
 0.910943E-013
 0.910943E-013
 0.910943E-013
 0.910943E-013
 0.910943E-013
 0.910943E-013
 0.910943E-013
 0.910943E-013
 0.910943E-013
 0.910943E-013
 0.910943E-013
 0.910943E-013
 0.910943E-013
 0.910943E-013
 0.910942E-013
 0.910942E-013
 0.910942E-013
 0.910942E-013
 0.910942E-013
 0.910942E-013
 0.910941E-013
 0.910941E-013
 0.910941E-013
 0.910941E-013
 0.910941E-013
 0.910940E-013
 0.910940E-013
 0.910940E-013
 0.910940E-013
 0.910940E-013
 0.910940E-013
 0.910940E-013
 0.910939E-013
 0.910939E-013
 0.910939E-013
 0.910939E-013
 0.910939E-013
 0.910939E-013
 0.910939E-013
 0.910939E-013
 0.910939E-013
 0.910939E-013
 0.910939E-013
 0.910938E-013
 0.910938E-013
 0.910938E-013
 0.910938E-013
 0.910938E-013
 0.910938E-013
 0.910938E-013
 0.910938E-013
 0.910938E-013
 0.910938E-013
 0.910938E-013
 0.910938E-013
 0.910938E-013
 0.910938E-013
 0.910938E-013
 0.910938E-013
 0.910938E-013
 0.910939E-013
 0.910934E-013
 0.910971E-013
 0.910746E-013
 0.911865E-013
 0.907500E-013
 0.919998E-013
 0.921013E-013
 0.907103E-013
 0.911974E-013
 0.910723E-013
 0.910975E-013
 0.910933E-013
 0.910939E-013
 0.910938E-013
 0.910938E-013
 0.910938E-013
 0.910938E-013
 0.910938E-013
 0.910938E-013
 0.910938E-013
 0.910938E-013
 0.910938E-013
 0.910938E-013
 0.910938E-013
 0.910938E-013
 0.910938E-013
 0.910939E-013
 0.910939E-013
 0.910939E-013
 0.910939E-013
 0.910939E-013
 0.910939E-013
 0.910939E-013
 0.910939E-013
 0.910939E-013
 0.910939E-013
 0.910939E-013
 0.910939E-013
 0.910940E-013
 0.910940E-013
 0.910940E-013
 0.910940E-013
 0.910940E-013
 0.910940E-013
 0.910941E-013
 0.910941E-013
 0.910941E-013
 0.910941E-013
 0.910941E-013
 0.910942E-013
 0.910942E-013
 0.910942E-013
 0.910942E-013
 0.910943E-013
 0.910943E-013
 0.910943E-013
 0.910943E-013
 0.910943E-013
 0.910944E-013
 0.910944E-013
 0.910944E-013
 0.910944E-013
 0.910944E-013
 0.910944E-013
 0.910945E-013
 0.910945E-013
 0.910945E-013
 0.910945E-013
 0.910945E-013
 0.910945E-013
 0.910945E-013
 0.910945E-013
 0.910945E-013
 0.910945E-013
 0.910945E-013
 0.910945E-013
 0.910944E-013
 0.910944E-013
 0.910944E-013
 0.910944E-013
 0.910944E-013
 0.910944E-013
 0.910943E-013
 0.910943E-013
 0.910943E-013
 0.910943E-013
 0.910943E-013
 0.910942E-013
 0.910942E-013
 0.910942E-013
 0.910942E-013
 0.910941E-013
 0.910941E-013
 0.910941E-013
 0.910941E-013
 0.910941E-013
 0.910940E-013
 0.910940E-013
 0.910940E-013
 0.910940E-013
 0.910940E-013
 0.910940E-013
 0.910939E-013
 0.910939E-013
 0.910939E-013
 0.910939E-013
 0.910939E-013
 0.910939E-013
 0.910939E-013
 0.910939E-013
 0.910939E-013
 0.910939E-013
 0.910939E-013
 0.910939E-013
 0.910939E-013
 0.910938E-013
 0.910938E-013
 0.910938E-013
 0.910938E-013
 0.910938E-013
 0.910938E-013
 0.910938E-013
 0.910938E-013
 0.910938E-013
 0.910938E-013
 0.910938E-013
 0.910938E-013
 0.910939E-013
 0.910933E-013
 0.910975E-013
 0.910723E-013
 0.911974E-013
 0.907104E-013
 0.921013E-013
 0.922025E-013
 0.906708E-013
 0.912082E-013
 0.910700E-013
 0.910978E-013
 0.910933E-013
 0.910939E-013
 0.910938E-013
 0.910938E-013
 0.910938E-013
 0.910938E-013
 0.910938E-013
 0.910938E-013
 0.910938E-013
 0.910938E-013
 0.910938E-013
 0.910938E-013
 0.910938E-013
 0.910938E-013
 0.910939E-013
 0.910939E-013
 0.910939E-013
 0.910939E-013
 0.910939E-013
 0.910939E-013
 0.910939E-013
 0.910939E-013
 0.910939E-013
 0.910939E-013
 0.910939E-013
 0.910939E-013
 0.910940E-013
 0.910940E-013
 0.910940E-013
 0.910940E-013
 0.910940E-013
 0.910941E-013
 0.910941E-013
 0.910941E-013
 0.910941E-013
 0.910941E-013
 0.910942E-013
 0.910942E-013
 0.910942E-013
 0.910943E-013
 0.910943E-013
 0.910943E-013
 0.910943E-013
 0.910944E-013
 0.910944E-013
 0.910944E-013
 0.910944E-013
 0.910945E-013
 0.910945E-013
 0.910945E-013
 0.910945E-013
 0.910945E-013
 0.910946E-013
 0.910946E-013
 0.910946E-013
 0.910946E-013
 0.910946E-013
 0.910946E-013
 0.910946E-013
 0.910946E-013
 0.910946E-013
 0.910946E-013
 0.910946E-013
 0.910946E-013
 0.910946E-013
 0.910946E-013
 0.910945E-013
 0.910945E-013
 0.910945E-013
 0.910945E-013
 0.910945E-013
 0.910944E-013
 0.910944E-013
 0.910944E-013
 0.910944E-013
 0.910943E-013
 0.910943E-013
 0.910943E-013
 0.910943E-013
 0.910942E-013
 0.910942E-013
 0.910942E-013
 0.910941E-013
 0.910941E-013
 0.910941E-013
 0.910941E-013
 0.910941E-013
 0.910940E-013
 0.910940E-013
 0.910940E-013
 0.910940E-013
 0.910940E-013
 0.910940E-013
 0.910939E-013
 0.910939E-013
 0.910939E-013
 0.910939E-013
 0.910939E-013
 0.910939E-013
 0.910939E-013
 0.910939E-013
 0.910939E-013
 0.910939E-013
 0.910939E-013
 0.910939E-013
 0.910938E-013
 0.910938E-013
 0.910938E-013
 0.910938E-013
 0.910938E-013
 0.910938E-013
 0.910938E-013
 0.910938E-013
 0.910938E-013
 0.910938E-013
 0.910938E-013
 0.910939E-013
 0.910933E-013
 0.910978E-013
 0.910700E-013
 0.912082E-013
 0.906709E-013
 0.922025E-013
 0.923034E-013
 0.906314E-013
 0.912190E-013
 0.910678E-013
 0.910982E-013
 0.910932E-013
 0.910939E-013
 0.910938E-013
 0.910938E-013
 0.910938E-013
 0.910938E-013
 0.910938E-013
 0.910938E-013
 0.910938E-013
 0.910938E-013
 0.910938E-013
 0.910938E-013
 0.910938E-013
 0.910939E-013
 0.910939E-013
 0.910939E-013
 0.910939E-013
 0.910939E-013
 0.910939E-013
 0.910939E-013
 0.910939E-013
 0.910939E-013
 0.910939E-013
 0.910939E-013
 0.910940E-013
 0.910940E-013
 0.910940E-013
 0.910940E-013
 0.910940E-013
 0.910940E-013
 0.910941E-013
 0.910941E-013
 0.910941E-013
 0.910941E-013
 0.910942E-013
 0.910942E-013
 0.910942E-013
 0.910943E-013
 0.910943E-013
 0.910943E-013
 0.910944E-013
 0.910944E-013
 0.910944E-013
 0.910945E-013