# vtk DataFile Version 3.0
Solution data
ASCII
DATASET STRUCTURED_GRID
DIMENSIONS 128 128 1
POINTS 16384  double
      0.000004      0.000004      0.000000
      0.000012      0.000004      0.000000
      0.000020      0.000004      0.000000
      0.000027      0.000004      0.000000
      0.000035      0.000004      0.000000
      0.000043      0.000004      0.000000
      0.000051      0.000004      0.000000
      0.000059      0.000004      0.000000
      0.000066      0.000004      0.000000
      0.000074      0.000004      0.000000
      0.000082      0.000004      0.000000
      0.000090      0.000004      0.000000
      0.000098      0.000004      0.000000
      0.000105      0.000004      0.000000
      0.000113      0.000004      0.000000
      0.000121      0.000004      0.000000
      0.000129      0.000004      0.000000
      0.000137      0.000004      0.000000
      0.000145      0.000004      0.000000
      0.000152      0.000004      0.000000
      0.000160      0.000004      0.000000
      0.000168      0.000004      0.000000
      0.000176      0.000004      0.000000
      0.000184      0.000004      0.000000
      0.000191      0.000004      0.000000
      0.000199      0.000004      0.000000
      0.000207      0.000004      0.000000
      0.000215      0.000004      0.000000
      0.000223      0.000004      0.000000
      0.000230      0.000004      0.000000
      0.000238      0.000004      0.000000
      0.000246      0.000004      0.000000
      0.000254      0.000004      0.000000
      0.000262      0.000004      0.000000
      0.000270      0.000004      0.000000
      0.000277      0.000004      0.000000
      0.000285      0.000004      0.000000
      0.000293      0.000004      0.000000
      0.000301      0.000004      0.000000
      0.000309      0.000004      0.000000
      0.000316      0.000004      0.000000
      0.000324      0.000004      0.000000
      0.000332      0.000004      0.000000
      0.000340      0.000004      0.000000
      0.000348      0.000004      0.000000
      0.000355      0.000004      0.000000
      0.000363      0.000004      0.000000
      0.000371      0.000004      0.000000
      0.000379      0.000004      0.000000
      0.000387      0.000004      0.000000
      0.000395      0.000004      0.000000
      0.000402      0.000004      0.000000
      0.000410      0.000004      0.000000
      0.000418      0.000004      0.000000
      0.000426      0.000004      0.000000
      0.000434      0.000004      0.000000
      0.000441      0.000004      0.000000
      0.000449      0.000004      0.000000
      0.000457      0.000004      0.000000
      0.000465      0.000004      0.000000
      0.000473      0.000004      0.000000
      0.000480      0.000004      0.000000
      0.000488      0.000004      0.000000
      0.000496      0.000004      0.000000
      0.000504      0.000004      0.000000
      0.000512      0.000004      0.000000
      0.000520      0.000004      0.000000
      0.000527      0.000004      0.000000
      0.000535      0.000004      0.000000
      0.000543      0.000004      0.000000
      0.000551      0.000004      0.000000
      0.000559      0.000004      0.000000
      0.000566      0.000004      0.000000
      0.000574      0.000004      0.000000
      0.000582      0.000004      0.000000
      0.000590      0.000004      0.000000
      0.000598      0.000004      0.000000
      0.000605      0.000004      0.000000
      0.000613      0.000004      0.000000
      0.000621      0.000004      0.000000
      0.000629      0.000004      0.000000
      0.000637      0.000004      0.000000
      0.000645      0.000004      0.000000
      0.000652      0.000004      0.000000
      0.000660      0.000004      0.000000
      0.000668      0.000004      0.000000
      0.000676      0.000004      0.000000
      0.000684      0.000004      0.000000
      0.000691      0.000004      0.000000
      0.000699      0.000004      0.000000
      0.000707      0.000004      0.000000
      0.000715      0.000004      0.000000
      0.000723      0.000004      0.000000
      0.000730      0.000004      0.000000
      0.000738      0.000004      0.000000
      0.000746      0.000004      0.000000
      0.000754      0.000004      0.000000
      0.000762      0.000004      0.000000
      0.000770      0.000004      0.000000
      0.000777      0.000004      0.000000
      0.000785      0.000004      0.000000
      0.000793      0.000004      0.000000
      0.000801      0.000004      0.000000
      0.000809      0.000004      0.000000
      0.000816      0.000004      0.000000
      0.000824      0.000004      0.000000
      0.000832      0.000004      0.000000
      0.000840      0.000004      0.000000
      0.000848      0.000004      0.000000
      0.000855      0.000004      0.000000
      0.000863      0.000004      0.000000
      0.000871      0.000004      0.000000
      0.000879      0.000004      0.000000
      0.000887      0.000004      0.000000
      0.000895      0.000004      0.000000
      0.000902      0.000004      0.000000
      0.000910      0.000004      0.000000
      0.000918      0.000004      0.000000
      0.000926      0.000004      0.000000
      0.000934      0.000004      0.000000
      0.000941      0.000004      0.000000
      0.000949      0.000004      0.000000
      0.000957      0.000004      0.000000
      0.000965      0.000004      0.000000
      0.000973      0.000004      0.000000
      0.000980      0.000004      0.000000
      0.000988      0.000004      0.000000
      0.000996      0.000004      0.000000
      0.000004      0.000012      0.000000
      0.000012      0.000012      0.000000
      0.000020      0.000012      0.000000
      0.000027      0.000012      0.000000
      0.000035      0.000012      0.000000
      0.000043      0.000012      0.000000
      0.000051      0.000012      0.000000
      0.000059      0.000012      0.000000
      0.000066      0.000012      0.000000
      0.000074      0.000012      0.000000
      0.000082      0.000012      0.000000
      0.000090      0.000012      0.000000
      0.000098      0.000012      0.000000
      0.000105      0.000012      0.000000
      0.000113      0.000012      0.000000
      0.000121      0.000012      0.000000
      0.000129      0.000012      0.000000
      0.000137      0.000012      0.000000
      0.000145      0.000012      0.000000
      0.000152      0.000012      0.000000
      0.000160      0.000012      0.000000
      0.000168      0.000012      0.000000
      0.000176      0.000012      0.000000
      0.000184      0.000012      0.000000
      0.000191      0.000012      0.000000
      0.000199      0.000012      0.000000
      0.000207      0.000012      0.000000
      0.000215      0.000012      0.000000
      0.000223      0.000012      0.000000
      0.000230      0.000012      0.000000
      0.000238      0.000012      0.000000
      0.000246      0.000012      0.000000
      0.000254      0.000012      0.000000
      0.000262      0.000012      0.000000
      0.000270      0.000012      0.000000
      0.000277      0.000012      0.000000
      0.000285      0.000012      0.000000
      0.000293      0.000012      0.000000
      0.000301      0.000012      0.000000
      0.000309      0.000012      0.000000
      0.000316      0.000012      0.000000
      0.000324      0.000012      0.000000
      0.000332      0.000012      0.000000
      0.000340      0.000012      0.000000
      0.000348      0.000012      0.000000
      0.000355      0.000012      0.000000
      0.000363      0.000012      0.000000
      0.000371      0.000012      0.000000
      0.000379      0.000012      0.000000
      0.000387      0.000012      0.000000
      0.000395      0.000012      0.000000
      0.000402      0.000012      0.000000
      0.000410      0.000012      0.000000
      0.000418      0.000012      0.000000
      0.000426      0.000012      0.000000
      0.000434      0.000012      0.000000
      0.000441      0.000012      0.000000
      0.000449      0.000012      0.000000
      0.000457      0.000012      0.000000
      0.000465      0.000012      0.000000
      0.000473      0.000012      0.000000
      0.000480      0.000012      0.000000
      0.000488      0.000012      0.000000
      0.000496      0.000012      0.000000
      0.000504      0.000012      0.000000
      0.000512      0.000012      0.000000
      0.000520      0.000012      0.000000
      0.000527      0.000012      0.000000
      0.000535      0.000012      0.000000
      0.000543      0.000012      0.000000
      0.000551      0.000012      0.000000
      0.000559      0.000012      0.000000
      0.000566      0.000012      0.000000
      0.000574      0.000012      0.000000
      0.000582      0.000012      0.000000
      0.000590      0.000012      0.000000
      0.000598      0.000012      0.000000
      0.000605      0.000012      0.000000
      0.000613      0.000012      0.000000
      0.000621      0.000012      0.000000
      0.000629      0.000012      0.000000
      0.000637      0.000012      0.000000
      0.000645      0.000012      0.000000
      0.000652      0.000012      0.000000
      0.000660      0.000012      0.000000
      0.000668      0.000012      0.000000
      0.000676      0.000012      0.000000
      0.000684      0.000012      0.000000
      0.000691      0.000012      0.000000
      0.000699      0.000012      0.000000
      0.000707      0.000012      0.000000
      0.000715      0.000012      0.000000
      0.000723      0.000012      0.000000
      0.000730      0.000012      0.000000
      0.000738      0.000012      0.000000
      0.000746      0.000012      0.000000
      0.000754      0.000012      0.000000
      0.000762      0.000012      0.000000
      0.000770      0.000012      0.000000
      0.000777      0.000012      0.000000
      0.000785      0.000012      0.000000
[...]
POINT_DATA 16384
SCALARS rhoe double
LOOKUP_TABLE default
 0.916735E-013
 0.912071E-013
 0.915540E-013
 0.915198E-013
 0.916406E-013
 0.917059E-013
 0.917884E-013
 0.918657E-013
 0.919441E-013
 0.920220E-013
 0.920997E-013
 0.921771E-013
 0.922543E-013
 0.923312E-013
 0.924077E-013
 0.924839E-013
 0.925598E-013
 0.926353E-013
 0.927104E-013
 0.927851E-013
 0.928593E-013
 0.929331E-013
 0.930063E-013
 0.930789E-013
 0.931510E-013
 0.932224E-013
 0.932931E-013
 0.933631E-013
 0.934324E-013
 0.935008E-013
 0.935683E-013
 0.936349E-013
 0.937005E-013
 0.937650E-013
 0.938284E-013
 0.938906E-013
 0.939516E-013
 0.940112E-013
 0.940694E-013
 0.941262E-013
 0.941815E-013
 0.942351E-013
 0.942871E-013
 0.943373E-013
 0.943857E-013
 0.944322E-013
 0.944767E-013
 0.945193E-013
 0.945597E-013
 0.945979E-013
 0.946339E-013
 0.946676E-013
 0.946990E-013
 0.947279E-013
 0.947544E-013
 0.947784E-013
 0.947999E-013
 0.948187E-013
 0.948350E-013
 0.948485E-013
 0.948594E-013
 0.948676E-013
 0.948731E-013
 0.948758E-013
 0.948758E-013
 0.948731E-013
 0.948676E-013
 0.948594E-013
 0.948485E-013
 0.948350E-013
 0.948187E-013
 0.947999E-013
 0.947784E-013
 0.947545E-013
 0.947280E-013
 0.946990E-013
 0.946676E-013
 0.946339E-013
 0.945979E-013
 0.945597E-013
 0.945193E-013
 0.944768E-013
 0.944322E-013
 0.943857E-013
 0.943373E-013
 0.942871E-013
 0.942351E-013
 0.941815E-013
 0.941262E-013
 0.940695E-013
 0.940112E-013
 0.939516E-013
 0.938906E-013
 0.938284E-013
 0.937650E-013
 0.937005E-013
 0.936349E-013
 0.935683E-013
 0.935008E-013
 0.934324E-013
 0.933632E-013
 0.932932E-013
 0.932224E-013
 0.931510E-013
 0.930789E-013
 0.930063E-013
 0.929331E-013
 0.928593E-013
 0.927851E-013
 0.927104E-013
 0.926353E-013
 0.925598E-013
 0.924839E-013
 0.924077E-013
 0.923312E-013
 0.922543E-013
 0.921772E-013
 0.920997E-013
 0.920220E-013
 0.919442E-013
 0.918658E-013
 0.917884E-013
 0.917059E-013
 0.916406E-013
 0.915198E-013
 0.915540E-013
 0.912071E-013
 0.916735E-013
 0.912071E-013
 0.907558E-013
 0.909420E-013
 0.907694E-013
 0.907636E-013
 0.906924E-013
 0.906436E-013
 0.905883E-013
 0.905350E-013
 0.904813E-013
 0.904279E-013
 0.903747E-013
 0.903217E-013
 0.902689E-013
 0.902163E-013
 0.901640E-013
 0.901118E-013
 0.900600E-013
 0.900083E-013
 0.899570E-013
 0.899060E-013
 0.898554E-013
 0.898051E-013
 0.897551E-013
 0.897056E-013
 0.896565E-013
 0.896079E-013
 0.895597E-013
 0.895121E-013
 0.894651E-013
 0.894186E-013
 0.893728E-013
 0.893277E-013
 0.892833E-013
 0.892397E-013
 0.891969E-013
 0.891549E-013
 0.891139E-013
 0.890738E-013
 0.890347E-013
 0.889966E-013
 0.889597E-013
 0.889239E-013
 0.888893E-013
 0.888559E-013
 0.888239E-013
 0.887932E-013
 0.887639E-013
 0.887360E-013
 0.887097E-013
 0.886849E-013
 0.886616E-013
 0.886400E-013
 0.886200E-013
 0.886018E-013
 0.885852E-013
 0.885704E-013
 0.885574E-013
 0.885462E-013
 0.885369E-013
 0.885294E-013
 0.885237E-013
 0.885199E-013
 0.885181E-013
 0.885181E-013
 0.885199E-013
 0.885237E-013
 0.885294E-013
 0.885369E-013
 0.885462E-013
 0.885574E-013
 0.885704E-013
 0.885852E-013
 0.886018E-013
 0.886200E-013
 0.886400E-013
 0.886616E-013
 0.886849E-013
 0.887097E-013
 0.887361E-013
 0.887639E-013
 0.887932E-013
 0.888239E-013
 0.888559E-013
 0.888893E-013
 0.889239E-013
 0.889597E-013
 0.889966E-013
 0.890347E-013
 0.890738E-013
 0.891139E-013
 0.891549E-013
 0.891969E-013
 0.892397E-013
 0.892833E-013
 0.893277E-013
 0.893728E-013
 0.894186E-013
 0.894651E-013
 0.895121E-013
 0.895597E-013
 0.896079E-013
 0.896565E-013
 0.897056E-013
 0.897551E-013
 0.898051E-013
 0.898554E-013
 0.899060E-013
 0.899570E-013
 0.900084E-013
 0.900600E-013
 0.901118E-013
 0.901640E-013
 0.902163E-013
 0.902689E-013
 0.903217E-013
 0.903747E-013
 0.904279E-013
 0.904813E-013
 0.905350E-013
 0.905883E-013
 0.906436E-013
 0.906924E-013
 0.907636E-013
 0.907694E-013
 0.909420E-013
 0.907558E-013
 0.912071E-013
 0.915540E-013
 0.909420E-013
 0.913347E-013
 0.911915E-013
 0.912910E-013
 0.912960E-013
 0.913329E-013
 0.913602E-013
 0.913900E-013
 0.914190E-013
 0.914481E-013
 0.914770E-013
 0.915059E-013
 0.915346E-013
 0.915632E-013
 0.915917E-013
 0.916200E-013
 0.916482E-013
 0.916763E-013
 0.917042E-013
 0.917319E-013
 0.917595E-013
 0.917869E-013
 0.918140E-013
 0.918410E-013
 0.918677E-013
 0.918941E-013
 0.919203E-013
 0.919462E-013
 0.919718E-013
 0.919971E-013
 0.920220E-013
 0.920465E-013
 0.920707E-013
 0.920944E-013
 0.921177E-013
 0.921406E-013
 0.921629E-013
 0.921848E-013
 0.922060E-013
 0.922268E-013
 0.922469E-013
 0.922664E-013
 0.922852E-013
 0.923034E-013
 0.923208E-013
 0.923375E-013
 0.923535E-013
 0.923686E-013
 0.923830E-013
 0.923965E-013
 0.924092E-013
 0.924210E-013
 0.924318E-013
 0.924418E-013
 0.924508E-013
 0.924589E-013
 0.924660E-013
 0.924721E-013
 0.924772E-013
 0.924812E-013
 0.924843E-013
 0.924864E-013
 0.924874E-013
 0.924874E-013
 0.924864E-013
 0.924843E-013
 0.924812E-013
 0.924772E-013
 0.924721E-013
 0.924660E-013
 0.924589E-013
 0.924508E-013
 0.924418E-013
 0.924318E-013
 0.924210E-013
 0.924092E-013
 0.923965E-013
 0.923830E-013
 0.923686E-013
 0.923535E-013
 0.923375E-013
 0.923208E-013
 0.923034E-013
 0.922852E-013
 0.922664E-013
 0.922469E-013
 0.922267E-013
 0.922060E-013
 0.921847E-013
 0.921629E-013
 0.921406E-013
 0.921177E-013
 0.920944E-013
 0.920707E-013
 0.920465E-013
 0.920220E-013
 0.919971E-013
 0.919718E-013
 0.919462E-013
 0.919203E-013
 0.918941E-013
 0.918677E-013
 0.918409E-013
 0.918140E-013
 0.917868E-013
 0.917595E-013
 0.917319E-013
 0.917042E-013
 0.916763E-013
 0.916482E-013
 0.916200E-013
 0.915917E-013
 0.915632E-013
 0.915346E-013
 0.915059E-013
 0.914770E-013
 0.914481E-013
 0.914190E-013
 0.913899E-013
 0.913602E-013
 0.913329E-013
 0.912960E-013
 0.912910E-013
 0.911915E-013
 0.913346E-013
 0.909420E-013
 0.915540E-013
 0.915198E-013
 0.907694E-013
 0.911915E-013
 0.909660E-013
 0.910400E-013
 0.909961E-013
 0.909924E-013
 0.909768E-013
 0.909644E-013
 0.909512E-013
 0.909383E-013
 0.909254E-013
 0.909125E-013
 0.908997E-013
 0.908870E-013
 0.908743E-013
 0.908616E-013
 0.908491E-013
 0.908366E-013
 0.908241E-013
 0.908117E-013
 0.907995E-013
 0.907873E-013
 0.907752E-013
 0.907631E-013
 0.907512E-013
 0.907394E-013
 0.907278E-013
 0.907162E-013
 0.907048E-013
 0.906935E-013
 0.906824E-013
 0.906715E-013
 0.906607E-013
 0.906501E-013
 0.906397E-013
 0.906295E-013
 0.906195E-013
 0.906098E-013
 0.906003E-013
 0.905911E-013
 0.905821E-013
 0.905734E-013
 0.905650E-013
 0.905569E-013
 0.905491E-013
 0.905416E-013
 0.905345E-013
 0.905278E-013
 0.905214E-013
 0.905153E-013
 0.905097E-013
 0.905044E-013
 0.904996E-013
 0.904951E-013
 0.904911E-013
 0.904875E-013
 0.904843E-013
 0.904816E-013
 0.904793E-013
 0.904775E-013
 0.904761E-013
 0.904752E-013
 0.904748E-013
 0.904748E-013
 0.904752E-013
 0.904761E-013
 0.904775E-013
 0.904793E-013
 0.904816E-013
 0.904843E-013
 0.904875E-013
 0.904911E-013
 0.904951E-013
 0.904996E-013
 0.905044E-013
 0.905097E-013
 0.905153E-013
 0.905214E-013
 0.905278E-013
 0.905345E-013
 0.905417E-013
 0.905491E-013
 0.905569E-013
 0.905650E-013
 0.905734E-013
 0.905821E-013
 0.905911E-013
 0.906003E-013
 0.906098E-013
 0.906196E-013
 0.906295E-013
 0.906397E-013
 0.906501E-013
 0.906607E-013
 0.906715E-013
 0.906824E-013
 0.906935E-013
 0.907048E-013
 0.907162E-013
 0.907278E-013
 0.907394E-013
 0.907512E-013
 0.907631E-013
 0.907752E-013
 0.907873E-013
 0.907995E-013
 0.908118E-013
 0.908241E-013
 0.908366E-013
 0.908491E-013
 0.908617E-013
 0.908743E-013
 0.908870E-013
 0.908997E-013
 0.909126E-013
 0.909254E-013
 0.909383E-013
 0.909512E-013
 0.909644E-013
 0.909768E-013
 0.909924E-013
 0.909961E-013
 0.910400E-013
 0.909660E-013
 0.911915E-013
 0.907694E-013
 0.915198E-013
 0.916406E-013
 0.907636E-013
 0.912910E-013
 0.910400E-013
 0.911505E-013
 0.911181E-013
 0.911346E-013
 0.911363E-013
 0.911420E-013
 0.911467E-013
 0.911516E-013
 0.911564E-013
 0.911613E-013
 0.911661E-013
 0.911709E-013
 0.911756E-013
 0.911804E-013
 0.911851E-013
 0.911898E-013
 0.911945E-013
 0.911991E-013
 0.912037E-013
 0.912083E-013
 0.912128E-013
 0.912174E-013
 0.912218E-013
 0.912262E-013
 0.912306E-013
 0.912350E-013
 0.912392E-013
 0.912435E-013
 0.912476E-013
 0.912518E-013
 0.912558E-013
 0.912598E-013
 0.912637E-013
 0.912675E-013
 0.912712E-013
 0.912749E-013
 0.912785E-013
 0.912819E-013
 0.912853E-013
 0.912886E-013
 0.912917E-013
 0.912948E-013
 0.912977E-013
 0.913005E-013
 0.913032E-013
 0.913057E-013
 0.913081E-013
 0.913104E-013
 0.913125E-013
 0.913145E-013
 0.913163E-013
 0.913180E-013
 0.913195E-013
 0.913208E-013
 0.913220E-013
 0.913230E-013
 0.913239E-013
 0.913246E-013
 0.913251E-013
 0.913254E-013
 0.913256E-013
 0.913256E-013
 0.913254E-013
 0.913251E-013
 0.913246E-013
 0.913239E-013
 0.913230E-013
 0.913220E-013
 0.913208E-013
 0.913195E-013
 0.913180E-013
 0.913163E-013
 0.913145E-013
 0.913125E-013
 0.913104E-013
 0.913081E-013
 0.913057E-013
 0.913032E-013
 0.913005E-013
 0.912977E-013
 0.912948E-013
 0.912917E-013
 0.912886E-013
 0.912853E-013
 0.912819E-013
 0.912785E-013
 0.912749E-013
 0.912712E-013
 0.912675E-013
 0.912637E-013
 0.912598E-013
 0.912558E-013
 0.912518E-013
 0.912476E-013
 0.912435E-013
 0.912392E-013
 0.912350E-013
 0.912306E-013
 0.912262E-013
 0.912218E-013
 0.912173E-013
 0.912128E-013
 0.912083E-013
 0.912037E-013
 0.911991E-013
 0.911945E-013
 0.911898E-013
 0.911851E-013
 0.911804E-013
 0.911756E-013
 0.911709E-013
 0.911661E-013
 0.911613E-013
 0.911564E-013
 0.911516E-013
 0.911467E-013
 0.911420E-013
 0.911363E-013
 0.911345E-013
 0.911181E-013
 0.911505E-013
 0.910400E-013
 0.912910E-013
 0.907636E-013
 0.916406E-013
 0.917059E-013
 0.906924E-013
 0.912960E-013
 0.909961E-013
 0.911181E-013
 0.910726E-013
 0.910846E-013
 0.910793E-013
 0.910787E-013
 0.910769E-013
 0.910753E-013
 0.910738E-013
 0.910722E-013
 0.910707E-013
 0.910691E-013
 0.910676E-013
 0.910660E-013
 0.910645E-013
 0.910630E-013
 0.910615E-013
 0.910600E-013
 0.910585E-013
 0.910570E-013
 0.910556E-013
 0.910541E-013
 0.910527E-013
 0.910512E-013
 0.910498E-013
 0.910484E-013
 0.910470E-013
 0.910457E-013
 0.910443E-013
 0.910430E-013
 0.910417E-013
 0.910404E-013
 0.910391E-013
 0.910379E-013
 0.910367E-013
 0.910355E-013
 0.910344E-013
 0.910333E-013
 0.910322E-013
 0.910311E-013
 0.910301E-013
 0.910291E-013
 0.910282E-013
 0.910273E-013
 0.910264E-013
 0.910256E-013
 0.910248E-013
 0.910241E-013
 0.910234E-013
 0.910228E-013
 0.910222E-013
 0.910217E-013
 0.910212E-013
 0.910207E-013
 0.910204E-013
 0.910200E-013
 0.910198E-013
 0.910195E-013
 0.910194E-013
 0.910193E-013
 0.910192E-013
 0.910192E-013
 0.910193E-013
 0.910194E-013
 0.910195E-013
 0.910198E-013
 0.910200E-013
 0.910204E-013
 0.910207E-013
 0.910212E-013
 0.910217E-013
 0.910222E-013
 0.910228E-013
 0.910234E-013
 0.910241E-013
 0.910248E-013
 0.910256E-013
 0.910264E-013
 0.910273E-013
 0.910282E-013
 0.910291E-013
 0.910301E-013
 0.910311E-013
 0.910322E-013
 0.910333E-013
 0.910344E-013
 0.910355E-013
 0.910367E-013
 0.910379E-013
 0.910392E-013
 0.910404E-013
 0.910417E-013
 0.910430E-013
 0.910443E-013
 0.910457E-013
 0.910470E-013
 0.910484E-013
 0.910498E-013
 0.910512E-013
 0.910527E-013
 0.910541E-013
 0.910556E-013
 0.910570E-013
 0.910585E-013
 0.910600E-013
 0.910615E-013
 0.910630E-013
 0.910645E-013
 0.910660E-013
 0.910676E-013
 0.910691E-013
 0.910707E-013
 0.910722E-013
 0.910738E-013
 0.910753E-013
 0.910769E-013
 0.910787E-013
 0.910793E-013
 0.910846E-013
 0.910726E-013
 0.911181E-013
 0.909961E-013
 0.912960E-013
 0.906924E-013
 0.917059E-013
 0.917884E-013
 0.906436E-013
 0.913329E-013
 0.909924E-013
 0.911346E-013
 0.910846E-013
 0.911007E-013
 0.910968E-013
 0.910983E-013
 0.910985E-013
 0.910990E-013
 0.910995E-013
 0.910999E-013
 0.911004E-013
 0.911008E-013
 0.911012E-013
 0.911017E-013
 0.911021E-013
 0.911025E-013
 0.911029E-013
 0.911034E-013
 0.911038E-013
 0.911042E-013
 0.911046E-013
 0.911050E-013
 0.911055E-013
 0.911059E-013
 0.911063E-013
 0.911067E-013
 0.911071E-013
 0.911074E-013
 0.911078E-013
 0.911082E-013
 0.911086E-013
 0.911089E-013
 0.911093E-013
 0.911097E-013
 0.911100E-013
 0.911103E-013
 0.911107E-013
 0.911110E-013
 0.911113E-013
 0.911116E-013
 0.911119E-013
 0.911122E-013
 0.911124E-013
 0.911127E-013
 0.911130E-013
 0.911132E-013
 0.911134E-013
 0.911136E-013
 0.911138E-013
 0.911140E-013
 0.911142E-013
 0.911143E-013
 0.911145E-013
 0.911146E-013
 0.911147E-013
 0.911148E-013
 0.911149E-013
 0.911149E-013
 0.911150E-013
 0.911150E-013
 0.911150E-013
 0.911150E-013
 0.911150E-013
 0.911150E-013
 0.911149E-013
 0.911149E-013
 0.911148E-013
 0.911147E-013
 0.911146E-013
 0.911145E-013
 0.911143E-013
 0.911142E-013
 0.911140E-013
 0.911138E-013
 0.911136E-013
 0.911134E-013
 0.911132E-013
 0.911130E-013
 0.911127E-013
 0.911124E-013
 0.911122E-013
 0.911119E-013
 0.911116E-013
 0.911113E-013
 0.911110E-013
 0.911107E-013
 0.911103E-013
 0.911100E-013
 0.911097E-013
 0.911093E-013
 0.911089E-013
 0.911086E-013
 0.911082E-013
 0.911078E-013
 0.911074E-013
 0.911071E-013
 0.911067E-013
 0.911063E-013
 0.911059E-013
 0.911055E-013
 0.911050E-013
 0.911046E-013
 0.911042E-013
 0.911038E-013
 0.911034E-013
 0.911029E-013
 0.911025E-013
 0.911021E-013
 0.911017E-013
 0.911012E-013
 0.911008E-013
 0.911004E-013
 0.910999E-013
 0.910995E-013
 0.910990E-013
 0.910985E-013
 0.910983E-013
 0.910968E-013
 0.911007E-013
 0.910846E-013
 0.911345E-013
 0.909924E-013
 0.913329E-013
 0.906436E-013
 0.917884E-013
 0.918657E-013
 0.905883E-013
 0.913602E-013
 0.909768E-013
 0.911363E-013
 0.910793E-013
 0.910968E-013
 0.910919E-013
 0.910930E-013
 0.910926E-013
 0.910925E-013
 0.910924E-013
 0.910923E-013
 0.910922E-013
 0.910921E-013
 0.910920E-013
 0.910919E-013
 0.910918E-013
 0.910917E-013
 0.910916E-013
 0.910915E-013
 0.910914E-013
 0.910912E-013
 0.910911E-013
 0.910910E-013
 0.910909E-013
 0.910908E-013
 0.910907E-013
 0.910906E-013
 0.910906E-013
 0.910905E-013
 0.910904E-013
 0.910903E-013
 0.910902E-013
 0.910901E-013
 0.910900E-013
 0.910899E-013
 0.910898E-013
 0.910898E-013
 0.910897E-013
 0.910896E-013
 0.910895E-013
 0.910895E-013
 0.910894E-013
 0.910893E-013
 0.910893E-013
 0.910892E-013
 0.910892E-013
 0.910891E-013
 0.910891E-013
 0.910890E-013
 0.910890E-013
 0.910889E-013
 0.910889E-013
 0.910888E-013
 0.910888E-013
 0.910888E-013
 0.910888E-013
 0.910887E-013
 0.910887E-013
 0.910887E-013
 0.910887E-013
 0.910887E-013
 0.910887E-013
 0.910887E-013
 0.910887E-013
 0.910887E-013
 0.910887E-013
 0.910887E-013
 0.910887E-013
 0.910888E-013
 0.910888E-013
 0.910888E-013
 0.910888E-013
 0.910889E-013
 0.910889E-013
 0.910890E-013
 0.910890E-013
 0.910891E-013
 0.910891E-013
 0.910892E-013
 0.910892E-013
 0.910893E-013
 0.910893E-013
 0.910894E-013
 0.910895E-013
 0.910895E-013
 0.910896E-013
 0.910897E-013
 0.910898E-013
 0.910898E-013
 0.910899E-013
 0.910900E-013
 0.910901E-013
 0.910902E-013
 0.910903E-013
 0.910904E-013
 0.910905E-013
 0.910906E-013
 0.910906E-013
 0.910907E-013
 0.910908E-013
 0.910909E-013
 0.910910E-013
 0.910911E-013
 0.910912E-013
 0.910914E-013
 0.910915E-013
 0.910916E-013
 0.910917E-013
 0.910918E-013
 0.910919E-013
 0.910920E-013
 0.910921E-013
 0.910922E-013
 0.910923E-013
 0.910924E-013
 0.910925E-013
 0.910926E-013
 0.910930E-013
 0.910919E-013
 0.910968E-013
 0.910793E-013
 0.911363E-013
 0.909768E-013
 0.913602E-013
 0.905883E-013
 0.918658E-013
 0.919441E-013
 0.905350E-013
 0.913900E-013
 0.909644E-013
 0.911420E-013
 0.910787E-013
 0.910983E-013
 0.910930E-013
 0.910943E-013
 0.910941E-013
 0.910941E-013
 0.910942E-013
 0.910942E-013
 0.910942E-013
 0.910942E-013
 0.910943E-013
 0.910943E-013
 0.910943E-013
 0.910943E-013
 0.910944E-013
 0.910944E-013
 0.910944E-013
 0.910944E-013
 0.910945E-013
 0.910945E-013
 0.910945E-013
 0.910945E-013
 0.910946E-013
 0.910946E-013
 0.910946E-013
 0.910946E-013
 0.910947E-013
 0.910947E-013
 0.910947E-013
 0.910947E-013
 0.910948E-013
 0.910948E-013
 0.910948E-013
 0.910948E-013
 0.910948E-013
 0.910949E-013
 0.910949E-013
 0.910949E-013
 0.910949E-013
 0.910950E-013
 0.910950E-013
 0.910950E-013
 0.910950E-013
 0.910950E-013
 0.910951E-013
 0.910951E-013
 0.910951E-013
 0.910951E-013
 0.910951E-013
 0.910951E-013
 0.910951E-013
 0.910952E-013
 0.910952E-013
 0.910952E-013
 0.910952E-013
 0.910952E-013
 0.910952E-013
 0.910952E-013
 0.910952E-013
 0.910952E-013
 0.910952E-013
 0.910952E-013
 0.910952E-013
 0.910952E-013
 0.910952E-013
 0.910952E-013
 0.910952E-013
 0.910951E-013
 0.910951E-013
 0.910951E-013
 0.910951E-013
 0.910951E-013
 0.910951E-013
 0.910951E-013
 0.910950E-013
 0.910950E-013
 0.910950E-013
 0.910950E-013
 0.910950E-013
 0.910949E-013
 0.910949E-013
 0.910949E-013
 0.910949E-013
 0.910948E-013
 0.910948E-013
 0.910948E-013
 0.910948E-013
 0.910948E-013
 0.910947E-013
 0.910947E-013
 0.910947E-013
 0.910947E-013
 0.910946E-013
 0.910946E-013
 0.910946E-013
 0.910946E-013
 0.910945E-013
 0.910945E-013
 0.910945E-013
 0.910945E-013
 0.910944E-013
 0.910944E-013
 0.910944E-013
 0.910944E-013
 0.910943E-013
 0.910943E-013
 0.910943E-013
 0.910943E-013
 0.910942E-013
 0.910942E-013
 0.910942E-013
 0.910942E-013
 0.910941E-013
 0.910941E-013
 0.910943E-013
 0.910930E-013
 0.910983E-013
 0.910787E-013
 0.911420E-013
 0.909644E-013
 0.913899E-013
 0.905350E-013
 0.919442E-013
 0.920220E-013
 0.904813E-013
 0.914190E-013
 0.909512E-013
 0.911467E-013
 0.910769E-013
 0.910985E-013
 0.910926E-013
 0.910941E-013
 0.910937E-013
 0.910938E-013
 0.910938E-013
 0.910938E-013
 0.910938E-013
 0.910938E-013
 0.910938E-013
 0.910938E-013
 0.910937E-013
 0.910937E-013
 0.910937E-013
 0.910937E-013
 0.910937E-013
 0.910937E-013
 0.910937E-013
 0.910937E-013
 0.910937E-013
 0.910937E-013
 0.910937E-013
 0.910937E-013
 0.910937E-013
 0.910937E-013
 0.910937E-013
 0.910937E-013
 0.910937E-013
 0.910937E-013
 0.910937E-013
 0.910937E-013
 0.910937E-013
 0.910937E-013
 0.910937E-013
 0.910937E-013
 0.910937E-013
 0.910937E-013
 0.910937E-013
 0.910937E-013
 0.910937E-013
 0.910937E-013
 0.910937E-013
 0.910938E-013
 0.910938E-013
 0.910938E-013
 0.910938E-013
 0.910938E-013
 0.910938E-013
 0.910938E-013
 0.910938E-013
 0.910938E-013
 0.910938E-013
 0.910938E-013
 0.910938E-013
 0.910938E-013
 0.910938E-013
 0.910938E-013
 0.910938E-013
 0.910938E-013
 0.910938E-013
 0.910938E-013
 0.910938E-013
 0.910938E-013
 0.910938E-013
 0.910938E-013
 0.910938E-013
 0.910938E-013
 0.910938E-013
 0.910938E-013
 0.910938E-013
 0.910938E-013
 0.910938E-013
 0.910938E-013
 0.910938E-013
 0.910937E-013
 0.910937E-013
 0.910937E-013
 0.910937E-013
 0.910937E-013
 0.910937E-013
 0.910937E-013
 0.910937E-013
 0.910937E-013
 0.910937E-013
 0.910937E-013
 0.910937E-013
 0.910937E-013
 0.910937E-013
 0.910937E-013
 0.910937E-013
 0.910937E-013
 0.910937E-013
 0.910937E-013
 0.910937E-013
 0.910937E-013
 0.910937E-013
 0.910937E-013
 0.910937E-013
 0.910937E-013
 0.910937E-013
 0.910937E-013
 0.910937E-013
 0.910937E-013
 0.910937E-013
 0.910937E-013
 0.910938E-013
 0.910938E-013
 0.910938E-013
 0.910938E-013
 0.910938E-013
 0.910938E-013
 0.910938E-013
 0.910937E-013
 0.910941E-013
 0.910926E-013
 0.910985E-013
 0.910769E-013
 0.911467E-013
 0.909513E-013
 0.914190E-013
 0.904813E-013
 0.920220E-013
 0.920997E-013
 0.904279E-013
 0.914481E-013
 0.909383E-013
 0.911516E-013
 0.910753E-013
 0.910990E-013
 0.910925E-013
 0.910941E-013
 0.910938E-013
 0.910939E-013
 0.910938E-013
 0.910939E-013
 0.910939E-013
 0.910939E-013
 0.910939E-013
 0.910939E-013
 0.910939E-013
 0.910939E-013
 0.910939E-013
 0.910939E-013
 0.910939E-013
 0.910939E-013
 0.910939E-013
 0.910939E-013
 0.910939E-013
 0.910939E-013
 0.910939E-013
 0.910939E-013
 0.910939E-013
 0.910939E-013
 0.910939E-013
 0.910939E-013
 0.910939E-013
 0.910939E-013
 0.910939E-013
 0.910939E-013
 0.910939E-013
 0.910940E-013
 0.910940E-013
 0.910940E-013
 0.910940E-013
 0.910940E-013
 0.910940E-013
 0.910940E-013
 0.910940E-013
 0.910940E-013
 0.910940E-013
 0.910940E-013