# vtk DataFile Version 3.0
Solution data
ASCII
DATASET STRUCTURED_GRID
DIMENSIONS 128 128 1
POINTS 16384  double
      0.000004      0.000004      0.000000
      0.000012      0.000004      0.000000
      0.000020      0.000004      0.000000
      0.000027      0.000004      0.000000
      0.000035      0.000004      0.000000
      0.000043      0.000004      0.000000
      0.000051      0.000004      0.000000
      0.000059      0.000004      0.000000
      0.000066      0.000004      0.000000
      0.000074      0.000004      0.000000
      0.000082      0.000004      0.000000
      0.000090      0.000004      0.000000
      0.000098      0.000004      0.000000
      0.000105      0.000004      0.000000
      0.000113      0.000004      0.000000
      0.000121      0.000004      0.000000
      0.000129      0.000004      0.000000
      0.000137      0.000004      0.000000
      0.000145      0.000004      0.000000
      0.000152      0.000004      0.000000
      0.000160      0.000004      0.000000
      0.000168      0.000004      0.000000
      0.000176      0.000004      0.000000
      0.000184      0.000004      0.000000
      0.000191      0.000004      0.000000
      0.000199      0.000004      0.000000
      0.000207      0.000004      0.000000
      0.000215      0.000004      0.000000
      0.000223      0.000004      0.000000
      0.000230      0.000004      0.000000
      0.000238      0.000004      0.000000
      0.000246      0.000004      0.000000
      0.000254      0.000004      0.000000
      0.000262      0.000004      0.000000
      0.000270      0.000004      0.000000
      0.000277      0.000004      0.000000
      0.000285      0.000004      0.000000
      0.000293      0.000004      0.000000
      0.000301      0.000004      0.000000
      0.000309      0.000004      0.000000
      0.000316      0.000004      0.000000
      0.000324      0.000004      0.000000
      0.000332      0.000004      0.000000
      0.000340      0.000004      0.000000
      0.000348      0.000004      0.000000
      0.000355      0.000004      0.000000
      0.000363      0.000004      0.000000
      0.000371      0.000004      0.000000
      0.000379      0.000004      0.000000
      0.000387      0.000004      0.000000
      0.000395      0.000004      0.000000
      0.000402      0.000004      0.000000
      0.000410      0.000004      0.000000
      0.000418      0.000004      0.000000
      0.000426      0.000004      0.000000
      0.000434      0.000004      0.000000
      0.000441      0.000004      0.000000
      0.000449      0.000004      0.000000
      0.000457      0.000004      0.000000
      0.000465      0.000004      0.000000
      0.000473      0.000004      0.000000
      0.000480      0.000004      0.000000
      0.000488      0.000004      0.000000
      0.000496      0.000004      0.000000
      0.000504      0.000004      0.000000
      0.000512      0.000004      0.000000
      0.000520      0.000004      0.000000
      0.000527      0.000004      0.000000
      0.000535      0.000004      0.000000
      0.000543      0.000004      0.000000
      0.000551      0.000004      0.000000
      0.000559      0.000004      0.000000
      0.000566      0.000004      0.000000
      0.000574      0.000004      0.000000
      0.000582      0.000004      0.000000
      0.000590      0.000004      0.000000
      0.000598      0.000004      0.000000
      0.000605      0.000004      0.000000
      0.000613      0.000004      0.000000
      0.000621      0.000004      0.000000
      0.000629      0.000004      0.000000
      0.000637      0.000004      0.000000
      0.000645      0.000004      0.000000
      0.000652      0.000004      0.000000
      0.000660      0.000004      0.000000
      0.000668      0.000004      0.000000
      0.000676      0.000004      0.000000
      0.000684      0.000004      0.000000
      0.000691      0.000004      0.000000
      0.000699      0.000004      0.000000
      0.000707      0.000004      0.000000
      0.000715      0.000004      0.000000
      0.000723      0.000004      0.000000
      0.000730      0.000004      0.000000
      0.000738      0.000004      0.000000
      0.000746      0.000004      0.000000
      0.000754      0.000004      0.000000
      0.000762      0.000004      0.000000
      0.000770      0.000004      0.000000
      0.000777      0.000004      0.000000
      0.000785      0.000004      0.000000
      0.000793      0.000004      0.000000
      0.000801      0.000004      0.000000
      0.000809      0.000004      0.000000
      0.000816      0.000004      0.000000
      0.000824      0.000004      0.000000
      0.000832      0.000004      0.000000
      0.000840      0.000004      0.000000
      0.000848      0.000004      0.000000
      0.000855      0.000004      0.000000
      0.000863      0.000004      0.000000
      0.000871      0.000004      0.000000
      0.000879      0.000004      0.000000
      0.000887      0.000004      0.000000
      0.000895      0.000004      0.000000
      0.000902      0.000004      0.000000
      0.000910      0.000004      0.000000
      0.000918      0.000004      0.000000
      0.000926      0.000004      0.000000
      0.000934      0.000004      0.000000
      0.000941      0.000004      0.000000
      0.000949      0.000004      0.000000
      0.000957      0.000004      0.000000
      0.000965      0.000004      0.000000
      0.000973      0.000004      0.000000
      0.000980      0.000004      0.000000
      0.000988      0.000004      0.000000
      0.000996      0.000004      0.000000
      0.000004      0.000012      0.000000
      0.000012      0.000012      0.000000
      0.000020      0.000012      0.000000
      0.000027      0.000012      0.000000
      0.000035      0.000012      0.000000
      0.000043      0.000012      0.000000
      0.000051      0.000012      0.000000
      0.000059      0.000012      0.000000
      0.000066      0.000012      0.000000
      0.000074      0.000012      0.000000
      0.000082      0.000012      0.000000
      0.000090      0.000012      0.000000
      0.000098      0.000012      0.000000
      0.000105      0.000012      0.000000
      0.000113      0.000012      0.000000
      0.000121      0.000012      0.000000
      0.000129      0.000012      0.000000
      0.000137      0.000012      0.000000
      0.000145      0.000012      0.000000
      0.000152      0.000012      0.000000
      0.000160      0.000012      0.000000
      0.000168      0.000012      0.000000
      0.000176      0.000012      0.000000
      0.000184      0.000012      0.000000
      0.000191      0.000012      0.000000
      0.000199      0.000012      0.000000
      0.000207      0.000012      0.000000
      0.000215      0.000012      0.000000
      0.000223      0.000012      0.000000
      0.000230      0.000012      0.000000
      0.000238      0.000012      0.000000
      0.000246      0.000012      0.000000
      0.000254      0.000012      0.000000
      0.000262      0.000012      0.000000
      0.000270      0.000012      0.000000
      0.000277      0.000012      0.000000
      0.000285      0.000012      0.000000
      0.000293      0.000012      0.000000
      0.000301      0.000012      0.000000
      0.000309      0.000012      0.000000
      0.000316      0.000012      0.000000
      0.000324      0.000012      0.000000
      0.000332      0.000012      0.000000
      0.000340      0.000012      0.000000
      0.000348      0.000012      0.000000
      0.000355      0.000012      0.000000
      0.000363      0.000012      0.000000
      0.000371      0.000012      0.000000
      0.000379      0.000012      0.000000
      0.000387      0.000012      0.000000
      0.000395      0.000012      0.000000
      0.000402      0.000012      0.000000
      0.000410      0.000012      0.000000
      0.000418      0.000012      0.000000
      0.000426      0.000012      0.000000
      0.000434      0.000012      0.000000
      0.000441      0.000012      0.000000
      0.000449      0.000012      0.000000
      0.000457      0.000012      0.000000
      0.000465      0.000012      0.000000
      0.000473      0.000012      0.000000
      0.000480      0.000012      0.000000
      0.000488      0.000012      0.000000
      0.000496      0.000012      0.000000
      0.000504      0.000012      0.000000
      0.000512      0.000012      0.000000
      0.000520      0.000012      0.000000
      0.000527      0.000012      0.000000
      0.000535      0.000012      0.000000
      0.000543      0.000012      0.000000
      0.000551      0.000012      0.000000
      0.000559      0.000012      0.000000
      0.000566      0.000012      0.000000
      0.000574      0.000012      0.000000
      0.000582      0.000012      0.000000
      0.000590      0.000012      0.000000
      0.000598      0.000012      0.000000
      0.000605      0.000012      0.000000
      0.000613      0.000012      0.000000
      0.000621      0.000012      0.000000
      0.000629      0.000012      0.000000
      0.000637      0.000012      0.000000
      0.000645      0.000012      0.000000
      0.000652      0.000012      0.000000
      0.000660      0.000012      0.000000
      0.000668      0.000012      0.000000
      0.000676      0.000012      0.000000
      0.000684      0.000012      0.000000
      0.000691      0.000012      0.000000
      0.000699      0.000012      0.000000
      0.000707      0.000012      0.000000
      0.000715      0.000012      0.000000
      0.000723      0.000012      0.000000
      0.000730      0.000012      0.000000
      0.000738      0.000012      0.000000
      0.000746      0.000012      0.000000
      0.000754      0.000012      0.000000
      0.000762      0.000012      0.000000
      0.000770      0.000012      0.000000
      0.000777      0.000012      0.000000
      0.000785      0.000012      0.000000
[...]
POINT_DATA 16384
SCALARS rhoe double
LOOKUP_TABLE default
 0.911155E-013
 0.911151E-013
 0.911259E-013
 0.911364E-013
 0.911470E-013
 0.911576E-013
 0.911682E-013
 0.911788E-013
 0.911894E-013
 0.912000E-013
 0.912105E-013
 0.912211E-013
 0.912317E-013
 0.912422E-013
 0.912528E-013
 0.912633E-013
 0.912739E-013
 0.912844E-013
 0.912949E-013
 0.913053E-013
 0.913158E-013
 0.913262E-013
 0.913365E-013
 0.913469E-013
 0.913572E-013
 0.913674E-013
 0.913776E-013
 0.913877E-013
 0.913977E-013
 0.914077E-013
 0.914175E-013
 0.914273E-013
 0.914370E-013
 0.914465E-013
 0.914559E-013
 0.914652E-013
 0.914743E-013
 0.914832E-013
 0.914920E-013
 0.915006E-013
 0.915090E-013
 0.915172E-013
 0.915251E-013
 0.915328E-013
 0.915403E-013
 0.915474E-013
 0.915544E-013
 0.915610E-013
 0.915673E-013
 0.915732E-013
 0.915789E-013
 0.915842E-013
 0.915891E-013
 0.915937E-013
 0.915979E-013
 0.916017E-013
 0.916051E-013
 0.916081E-013
 0.916107E-013
 0.916129E-013
 0.916146E-013
 0.916159E-013
 0.916168E-013
 0.916172E-013
 0.916173E-013
 0.916168E-013
 0.916160E-013
 0.916147E-013
 0.916129E-013
 0.916108E-013
 0.916082E-013
 0.916052E-013
 0.916018E-013
 0.915980E-013
 0.915938E-013
 0.915893E-013
 0.915843E-013
 0.915791E-013
 0.915734E-013
 0.915675E-013
 0.915612E-013
 0.915546E-013
 0.915477E-013
 0.915405E-013
 0.915331E-013
 0.915254E-013
 0.915174E-013
 0.915093E-013
 0.915009E-013
 0.914923E-013
 0.914835E-013
 0.914746E-013
 0.914655E-013
 0.914562E-013
 0.914468E-013
 0.914373E-013
 0.914276E-013
 0.914179E-013
 0.914080E-013
 0.913980E-013
 0.913880E-013
 0.913779E-013
 0.913677E-013
 0.913575E-013
 0.913472E-013
 0.913369E-013
 0.913265E-013
 0.913161E-013
 0.913056E-013
 0.912951E-013
 0.912846E-013
 0.912741E-013
 0.912636E-013
 0.912530E-013
 0.912425E-013
 0.912319E-013
 0.912213E-013
 0.912107E-013
 0.912001E-013
 0.911895E-013
 0.911789E-013
 0.911683E-013
 0.911577E-013
 0.911471E-013
 0.911365E-013
 0.911259E-013
 0.911152E-013
 0.911156E-013
 0.911151E-013
 0.910934E-013
 0.910935E-013
 0.910934E-013
 0.910933E-013
 0.910931E-013
 0.910930E-013
 0.910929E-013
 0.910928E-013
 0.910927E-013
 0.910926E-013
 0.910925E-013
 0.910924E-013
 0.910923E-013
 0.910922E-013
 0.910921E-013
 0.910920E-013
 0.910919E-013
 0.910918E-013
 0.910917E-013
 0.910916E-013
 0.910915E-013
 0.910914E-013
 0.910914E-013
 0.910913E-013
 0.910912E-013
 0.910912E-013
 0.910911E-013
 0.910911E-013
 0.910910E-013
 0.910910E-013
 0.910910E-013
 0.910909E-013
 0.910909E-013
 0.910909E-013
 0.910909E-013
 0.910909E-013
 0.910909E-013
 0.910910E-013
 0.910910E-013
 0.910910E-013
 0.910911E-013
 0.910911E-013
 0.910912E-013
 0.910912E-013
 0.910913E-013
 0.910914E-013
 0.910914E-013
 0.910915E-013
 0.910916E-013
 0.910917E-013
 0.910917E-013
 0.910918E-013
 0.910919E-013
 0.910919E-013
 0.910920E-013
 0.910921E-013
 0.910921E-013
 0.910922E-013
 0.910922E-013
 0.910922E-013
 0.910923E-013
 0.910923E-013
 0.910923E-013
 0.910923E-013
 0.910923E-013
 0.910923E-013
 0.910922E-013
 0.910922E-013
 0.910922E-013
 0.910921E-013
 0.910921E-013
 0.910920E-013
 0.910919E-013
 0.910919E-013
 0.910918E-013
 0.910917E-013
 0.910917E-013
 0.910916E-013
 0.910915E-013
 0.910914E-013
 0.910914E-013
 0.910913E-013
 0.910912E-013
 0.910912E-013
 0.910911E-013
 0.910911E-013
 0.910910E-013
 0.910910E-013
 0.910910E-013
 0.910909E-013
 0.910909E-013
 0.910909E-013
 0.910909E-013
 0.910909E-013
 0.910909E-013
 0.910909E-013
 0.910910E-013
 0.910910E-013
 0.910910E-013
 0.910911E-013
 0.910911E-013
 0.910912E-013
 0.910913E-013
 0.910913E-013
 0.910914E-013
 0.910915E-013
 0.910916E-013
 0.910917E-013
 0.910918E-013
 0.910918E-013
 0.910919E-013
 0.910920E-013
 0.910921E-013
 0.910922E-013
 0.910924E-013
 0.910925E-013
 0.910926E-013
 0.910927E-013
 0.910928E-013
 0.910929E-013
 0.910930E-013
 0.910931E-013
 0.910933E-013
 0.910934E-013
 0.910935E-013
 0.910934E-013
 0.911152E-013
 0.911259E-013
 0.910935E-013
 0.910939E-013
 0.910939E-013
 0.910939E-013
 0.910939E-013
 0.910939E-013
 0.910939E-013
 0.910939E-013
 0.910939E-013
 0.910939E-013
 0.910939E-013
 0.910940E-013
 0.910940E-013
 0.910940E-013
 0.910940E-013
 0.910940E-013
 0.910941E-013
 0.910941E-013
 0.910941E-013
 0.910942E-013
 0.910942E-013
 0.910943E-013
 0.910943E-013
 0.910944E-013
 0.910944E-013
 0.910945E-013
 0.910946E-013
 0.910947E-013
 0.910947E-013
 0.910948E-013
 0.910949E-013
 0.910950E-013
 0.910952E-013
 0.910953E-013
 0.910954E-013
 0.910955E-013
 0.910957E-013
 0.910958E-013
 0.910960E-013
 0.910961E-013
 0.910963E-013
 0.910965E-013
 0.910966E-013
 0.910968E-013
 0.910970E-013
 0.910972E-013
 0.910973E-013
 0.910975E-013
 0.910977E-013
 0.910979E-013
 0.910980E-013
 0.910982E-013
 0.910983E-013
 0.910984E-013
 0.910986E-013
 0.910987E-013
 0.910988E-013
 0.910989E-013
 0.910990E-013
 0.910990E-013
 0.910991E-013
 0.910991E-013
 0.910991E-013
 0.910991E-013
 0.910991E-013
 0.910991E-013
 0.910990E-013
 0.910990E-013
 0.910989E-013
 0.910988E-013
 0.910987E-013
 0.910986E-013
 0.910984E-013
 0.910983E-013
 0.910982E-013
 0.910980E-013
 0.910978E-013
 0.910977E-013
 0.910975E-013
 0.910973E-013
 0.910972E-013
 0.910970E-013
 0.910968E-013
 0.910966E-013
 0.910965E-013
 0.910963E-013
 0.910961E-013
 0.910960E-013
 0.910958E-013
 0.910957E-013
 0.910955E-013
 0.910954E-013
 0.910953E-013
 0.910951E-013
 0.910950E-013
 0.910949E-013
 0.910948E-013
 0.910947E-013
 0.910946E-013
 0.910946E-013
 0.910945E-013
 0.910944E-013
 0.910944E-013
 0.910943E-013
 0.910942E-013
 0.910942E-013
 0.910942E-013
 0.910941E-013
 0.910941E-013
 0.910941E-013
 0.910940E-013
 0.910940E-013
 0.910940E-013
 0.910940E-013
 0.910939E-013
 0.910939E-013
 0.910939E-013
 0.910939E-013
 0.910939E-013
 0.910939E-013
 0.910939E-013
 0.910939E-013
 0.910939E-013
 0.910939E-013
 0.910939E-013
 0.910935E-013
 0.911259E-013
 0.911364E-013
 0.910934E-013
 0.910939E-013
 0.910939E-013
 0.910939E-013
 0.910939E-013
 0.910939E-013
 0.910939E-013
 0.910939E-013
 0.910939E-013
 0.910939E-013
 0.910939E-013
 0.910940E-013
 0.910940E-013
 0.910940E-013
 0.910940E-013
 0.910941E-013
 0.910941E-013
 0.910941E-013
 0.910942E-013
 0.910942E-013
 0.910943E-013
 0.910943E-013
 0.910944E-013
 0.910944E-013
 0.910945E-013
 0.910946E-013
 0.910947E-013
 0.910948E-013
 0.910949E-013
 0.910950E-013
 0.910951E-013
 0.910953E-013
 0.910954E-013
 0.910955E-013
 0.910957E-013
 0.910959E-013
 0.910960E-013
 0.910962E-013
 0.910964E-013
 0.910966E-013
 0.910968E-013
 0.910970E-013
 0.910972E-013
 0.910974E-013
 0.910976E-013
 0.910978E-013
 0.910980E-013
 0.910982E-013
 0.910984E-013
 0.910986E-013
 0.910988E-013
 0.910990E-013
 0.910992E-013
 0.910993E-013
 0.910995E-013
 0.910996E-013
 0.910998E-013
 0.910999E-013
 0.911000E-013
 0.911000E-013
 0.911001E-013
 0.911001E-013
 0.911001E-013
 0.911001E-013
 0.911001E-013
 0.911001E-013
 0.911000E-013
 0.911000E-013
 0.910999E-013
 0.910998E-013
 0.910996E-013
 0.910995E-013
 0.910993E-013
 0.910992E-013
 0.910990E-013
 0.910988E-013
 0.910986E-013
 0.910984E-013
 0.910982E-013
 0.910980E-013
 0.910978E-013
 0.910976E-013
 0.910974E-013
 0.910972E-013
 0.910970E-013
 0.910968E-013
 0.910966E-013
 0.910964E-013
 0.910962E-013
 0.910960E-013
 0.910958E-013
 0.910957E-013
 0.910955E-013
 0.910954E-013
 0.910952E-013
 0.910951E-013
 0.910950E-013
 0.910949E-013
 0.910948E-013
 0.910947E-013
 0.910946E-013
 0.910945E-013
 0.910944E-013
 0.910944E-013
 0.910943E-013
 0.910943E-013
 0.910942E-013
 0.910942E-013
 0.910941E-013
 0.910941E-013
 0.910940E-013
 0.910940E-013
 0.910940E-013
 0.910940E-013
 0.910940E-013
 0.910939E-013
 0.910939E-013
 0.910939E-013
 0.910939E-013
 0.910939E-013
 0.910939E-013
 0.910939E-013
 0.910939E-013
 0.910939E-013
 0.910939E-013
 0.910934E-013
 0.911365E-013
 0.911470E-013
 0.910933E-013
 0.910939E-013
 0.910939E-013
 0.910939E-013
 0.910939E-013
 0.910939E-013
 0.910939E-013
 0.910939E-013
 0.910939E-013
 0.910940E-013
 0.910940E-013
 0.910940E-013
 0.910940E-013
 0.910940E-013
 0.910941E-013
 0.910941E-013
 0.910941E-013
 0.910942E-013
 0.910942E-013
 0.910943E-013
 0.910943E-013
 0.910944E-013
 0.910945E-013
 0.910946E-013
 0.910947E-013
 0.910948E-013
 0.910949E-013
 0.910950E-013
 0.910951E-013
 0.910952E-013
 0.910954E-013
 0.910955E-013
 0.910957E-013
 0.910959E-013
 0.910961E-013
 0.910963E-013
 0.910965E-013
 0.910967E-013
 0.910969E-013
 0.910971E-013
 0.910974E-013
 0.910976E-013
 0.910978E-013
 0.910981E-013
 0.910983E-013
 0.910986E-013
 0.910988E-013
 0.910991E-013
 0.910993E-013
 0.910996E-013
 0.910998E-013
 0.911000E-013
 0.911002E-013
 0.911004E-013
 0.911006E-013
 0.911008E-013
 0.911009E-013
 0.911011E-013
 0.911012E-013
 0.911013E-013
 0.911013E-013
 0.911014E-013
 0.911014E-013
 0.911014E-013
 0.911014E-013
 0.911013E-013
 0.911013E-013
 0.911012E-013
 0.911011E-013
 0.911009E-013
 0.911008E-013
 0.911006E-013
 0.911004E-013
 0.911002E-013
 0.911000E-013
 0.910998E-013
 0.910996E-013
 0.910993E-013
 0.910991E-013
 0.910988E-013
 0.910986E-013
 0.910983E-013
 0.910981E-013
 0.910978E-013
 0.910976E-013
 0.910973E-013
 0.910971E-013
 0.910969E-013
 0.910967E-013
 0.910964E-013
 0.910962E-013
 0.910960E-013
 0.910959E-013
 0.910957E-013
 0.910955E-013
 0.910954E-013
 0.910952E-013
 0.910951E-013
 0.910950E-013
 0.910948E-013
 0.910947E-013
 0.910946E-013
 0.910946E-013
 0.910945E-013
 0.910944E-013
 0.910943E-013
 0.910943E-013
 0.910942E-013
 0.910942E-013
 0.910941E-013
 0.910941E-013
 0.910941E-013
 0.910940E-013
 0.910940E-013
 0.910940E-013
 0.910940E-013
 0.910939E-013
 0.910939E-013
 0.910939E-013
 0.910939E-013
 0.910939E-013
 0.910939E-013
 0.910939E-013
 0.910939E-013
 0.910939E-013
 0.910932E-013
 0.911471E-013
 0.911576E-013
 0.910931E-013
 0.910939E-013
 0.910939E-013
 0.910939E-013
 0.910939E-013
 0.910939E-013
 0.910939E-013
 0.910939E-013
 0.910940E-013
 0.910940E-013
 0.910940E-013
 0.910940E-013
 0.910940E-013
 0.910941E-013
 0.910941E-013
 0.910942E-013
 0.910942E-013
 0.910943E-013
 0.910943E-013
 0.910944E-013
 0.910944E-013
 0.910945E-013
 0.910946E-013
 0.910947E-013
 0.910948E-013
 0.910949E-013
 0.910951E-013
 0.910952E-013
 0.910953E-013
 0.910955E-013
 0.910957E-013
 0.910959E-013
 0.910961E-013
 0.910963E-013
 0.910965E-013
 0.910967E-013
 0.910970E-013
 0.910972E-013
 0.910975E-013
 0.910978E-013
 0.910980E-013
 0.910983E-013
 0.910986E-013
 0.910989E-013
 0.910992E-013
 0.910995E-013
 0.910998E-013
 0.911001E-013
 0.911004E-013
 0.911007E-013
 0.911010E-013
 0.911012E-013
 0.911015E-013
 0.911017E-013
 0.911020E-013
 0.911022E-013
 0.911023E-013
 0.911025E-013
 0.911026E-013
 0.911027E-013
 0.911028E-013
 0.911029E-013
 0.911029E-013
 0.911029E-013
 0.911029E-013
 0.911028E-013
 0.911027E-013
 0.911026E-013
 0.911025E-013
 0.911023E-013
 0.911022E-013
 0.911020E-013
 0.911017E-013
 0.911015E-013
 0.911012E-013
 0.911010E-013
 0.911007E-013
 0.911004E-013
 0.911001E-013
 0.910998E-013
 0.910995E-013
 0.910992E-013
 0.910989E-013
 0.910986E-013
 0.910983E-013
 0.910980E-013
 0.910978E-013
 0.910975E-013
 0.910972E-013
 0.910970E-013
 0.910967E-013
 0.910965E-013
 0.910963E-013
 0.910960E-013
 0.910958E-013
 0.910957E-013
 0.910955E-013
 0.910953E-013
 0.910952E-013
 0.910950E-013
 0.910949E-013
 0.910948E-013
 0.910947E-013
 0.910946E-013
 0.910945E-013
 0.910944E-013
 0.910944E-013
 0.910943E-013
 0.910942E-013
 0.910942E-013
 0.910941E-013
 0.910941E-013
 0.910941E-013
 0.910940E-013
 0.910940E-013
 0.910940E-013
 0.910940E-013
 0.910939E-013
 0.910939E-013
 0.910939E-013
 0.910939E-013
 0.910939E-013
 0.910939E-013
 0.910939E-013
 0.910939E-013
 0.910931E-013
 0.911577E-013
 0.911682E-013
 0.910930E-013
 0.910939E-013
 0.910939E-013
 0.910939E-013
 0.910939E-013
 0.910939E-013
 0.910939E-013
 0.910940E-013
 0.910940E-013
 0.910940E-013
 0.910940E-013
 0.910941E-013
 0.910941E-013
 0.910941E-013
 0.910942E-013
 0.910942E-013
 0.910943E-013
 0.910943E-013
 0.910944E-013
 0.910945E-013
 0.910946E-013
 0.910947E-013
 0.910948E-013
 0.910949E-013
 0.910950E-013
 0.910951E-013
 0.910953E-013
 0.910955E-013
 0.910956E-013
 0.910958E-013
 0.910960E-013
 0.910962E-013
 0.910965E-013
 0.910967E-013
 0.910970E-013
 0.910973E-013
 0.910976E-013
 0.910979E-013
 0.910982E-013
 0.910985E-013
 0.910989E-013
 0.910992E-013
 0.910996E-013
 0.910999E-013
 0.911003E-013
 0.911006E-013
 0.911010E-013
 0.911013E-013
 0.911017E-013
 0.911020E-013
 0.911024E-013
 0.911027E-013
 0.911030E-013
 0.911033E-013
 0.911035E-013
 0.911038E-013
 0.911040E-013
 0.911042E-013
 0.911043E-013
 0.911044E-013
 0.911045E-013
 0.911046E-013
 0.911046E-013
 0.911046E-013
 0.911046E-013
 0.911045E-013
 0.911044E-013
 0.911043E-013
 0.911042E-013
 0.911040E-013
 0.911038E-013
 0.911035E-013
 0.911033E-013
 0.911030E-013
 0.911027E-013
 0.911024E-013
 0.911020E-013
 0.911017E-013
 0.911013E-013
 0.911010E-013
 0.911006E-013
 0.911003E-013
 0.910999E-013
 0.910995E-013
 0.910992E-013
 0.910988E-013
 0.910985E-013
 0.910982E-013
 0.910979E-013
 0.910976E-013
 0.910973E-013
 0.910970E-013
 0.910967E-013
 0.910965E-013
 0.910962E-013
 0.910960E-013
 0.910958E-013
 0.910956E-013
 0.910954E-013
 0.910953E-013
 0.910951E-013
 0.910950E-013
 0.910949E-013
 0.910947E-013
 0.910946E-013
 0.910945E-013
 0.910945E-013
 0.910944E-013
 0.910943E-013
 0.910942E-013
 0.910942E-013
 0.910941E-013
 0.910941E-013
 0.910941E-013
 0.910940E-013
 0.910940E-013
 0.910940E-013
 0.910940E-013
 0.910939E-013
 0.910939E-013
 0.910939E-013
 0.910939E-013
 0.910939E-013
 0.910939E-013
 0.910939E-013
 0.910930E-013
 0.911683E-013
 0.911788E-013
 0.910929E-013
 0.910939E-013
 0.910939E-013
 0.910939E-013
 0.910939E-013
 0.910939E-013
 0.910940E-013
 0.910940E-013
 0.910940E-013
 0.910940E-013
 0.910941E-013
 0.910941E-013
 0.910941E-013
 0.910942E-013
 0.910942E-013
 0.910943E-013
 0.910943E-013
 0.910944E-013
 0.910945E-013
 0.910946E-013
 0.910947E-013
 0.910948E-013
 0.910949E-013
 0.910951E-013
 0.910952E-013
 0.910954E-013
 0.910956E-013
 0.910958E-013
 0.910960E-013
 0.910962E-013
 0.910964E-013
 0.910967E-013
 0.910970E-013
 0.910973E-013
 0.910976E-013
 0.910979E-013
 0.910983E-013
 0.910986E-013
 0.910990E-013
 0.910994E-013
 0.910998E-013
 0.911002E-013
 0.911006E-013
 0.911011E-013
 0.911015E-013
 0.911019E-013
 0.911023E-013
 0.911028E-013
 0.911032E-013
 0.911036E-013
 0.911040E-013
 0.911044E-013
 0.911047E-013
 0.911050E-013
 0.911054E-013
 0.911056E-013
 0.911059E-013
 0.911061E-013
 0.911063E-013
 0.911065E-013
 0.911066E-013
 0.911066E-013
 0.911067E-013
 0.911067E-013
 0.911066E-013
 0.911066E-013
 0.911065E-013
 0.911063E-013
 0.911061E-013
 0.911059E-013
 0.911056E-013
 0.911053E-013
 0.911050E-013
 0.911047E-013
 0.911043E-013
 0.911040E-013
 0.911036E-013
 0.911032E-013
 0.911028E-013
 0.911023E-013
 0.911019E-013
 0.911015E-013
 0.911010E-013
 0.911006E-013
 0.911002E-013
 0.910998E-013
 0.910994E-013
 0.910990E-013
 0.910986E-013
 0.910983E-013
 0.910979E-013
 0.910976E-013
 0.910973E-013
 0.910970E-013
 0.910967E-013
 0.910964E-013
 0.910962E-013
 0.910959E-013
 0.910957E-013
 0.910955E-013
 0.910954E-013
 0.910952E-013
 0.910950E-013
 0.910949E-013
 0.910948E-013
 0.910947E-013
 0.910946E-013
 0.910945E-013
 0.910944E-013
 0.910943E-013
 0.910943E-013
 0.910942E-013
 0.910942E-013
 0.910941E-013
 0.910941E-013
 0.910940E-013
 0.910940E-013
 0.910940E-013
 0.910940E-013
 0.910939E-013
 0.910939E-013
 0.910939E-013
 0.910939E-013
 0.910939E-013
 0.910939E-013
 0.910929E-013
 0.911789E-013
 0.911894E-013
 0.910928E-013
 0.910939E-013
 0.910939E-013
 0.910939E-013
 0.910939E-013
 0.910940E-013
 0.910940E-013
 0.910940E-013
 0.910940E-013
 0.910941E-013
 0.910941E-013
 0.910941E-013
 0.910942E-013
 0.910942E-013
 0.910943E-013
 0.910944E-013
 0.910944E-013
 0.910945E-013
 0.910946E-013
 0.910947E-013
 0.910948E-013
 0.910950E-013
 0.910951E-013
 0.910953E-013
 0.910955E-013
 0.910957E-013
 0.910959E-013
 0.910961E-013
 0.910964E-013
 0.910966E-013
 0.910969E-013
 0.910972E-013
 0.910976E-013
 0.910979E-013
 0.910983E-013
 0.910987E-013
 0.910991E-013
 0.910995E-013
 0.911000E-013
 0.911004E-013
 0.911009E-013
 0.911014E-013
 0.911019E-013
 0.911024E-013
 0.911029E-013
 0.911034E-013
 0.911039E-013
 0.911044E-013
 0.911049E-013
 0.911054E-013
 0.911059E-013
 0.911063E-013
 0.911067E-013
 0.911071E-013
 0.911075E-013
 0.911078E-013
 0.911081E-013
 0.911084E-013
 0.911086E-013
 0.911088E-013
 0.911089E-013
 0.911090E-013
 0.911091E-013
 0.911091E-013
 0.911090E-013
 0.911089E-013
 0.911088E-013
 0.911086E-013
 0.911084E-013
 0.911081E-013
 0.911078E-013
 0.911075E-013
 0.911071E-013
 0.911067E-013
 0.911063E-013
 0.911058E-013
 0.911054E-013
 0.911049E-013
 0.911044E-013
 0.911039E-013
 0.911034E-013
 0.911029E-013
 0.911024E-013
 0.911019E-013
 0.911014E-013
 0.911009E-013
 0.911004E-013
 0.911000E-013
 0.910995E-013
 0.910991E-013
 0.910987E-013
 0.910983E-013
 0.910979E-013
 0.910975E-013
 0.910972E-013
 0.910969E-013
 0.910966E-013
 0.910963E-013
 0.910961E-013
 0.910959E-013
 0.910956E-013
 0.910954E-013
 0.910953E-013
 0.910951E-013
 0.910950E-013
 0.910948E-013
 0.910947E-013
 0.910946E-013
 0.910945E-013
 0.910944E-013
 0.910943E-013
 0.910943E-013
 0.910942E-013
 0.910942E-013
 0.910941E-013
 0.910941E-013
 0.910940E-013
 0.910940E-013
 0.910940E-013
 0.910940E-013
 0.910939E-013
 0.910939E-013
 0.910939E-013
 0.910939E-013
 0.910939E-013
 0.910928E-013
 0.911896E-013
 0.912000E-013
 0.910927E-013
 0.910939E-013
 0.910939E-013
 0.910939E-013
 0.910940E-013
 0.910940E-013
 0.910940E-013
 0.910940E-013
 0.910941E-013
 0.910941E-013
 0.910941E-013
 0.910942E-013
 0.910942E-013
 0.910943E-013
 0.910944E-013
 0.910945E-013
 0.910945E-013
 0.910946E-013
 0.910948E-013
 0.910949E-013
 0.910950E-013
 0.910952E-013
 0.910954E-013
 0.910955E-013
 0.910958E-013
 0.910960E-013
 0.910962E-013
 0.910965E-013
 0.910968E-013
 0.910971E-013
 0.910975E-013
 0.910978E-013
 0.910982E-013
 0.910987E-013
 0.910991E-013
 0.910996E-013
 0.911000E-013
 0.911006E-013
 0.911011E-013
 0.911016E-013
 0.911022E-013
 0.911028E-013
 0.911034E-013
 0.911039E-013
 0.911045E-013
 0.911052E-013
 0.911057E-013
 0.911063E-013
 0.911069E-013
 0.911075E-013
 0.911080E-013
 0.911086E-013
 0.911091E-013
 0.911095E-013
 0.911100E-013
 0.911104E-013
 0.911107E-013
 0.911110E-013
 0.911113E-013
 0.911115E-013
 0.911117E-013
 0.911118E-013
 0.911118E-013
 0.911118E-013
 0.911118E-013
 0.911117E-013
 0.911115E-013
 0.911113E-013
 0.911110E-013
 0.911107E-013
 0.911104E-013
 0.911100E-013
 0.911095E-013
 0.911091E-013
 0.911086E-013
 0.911080E-013
 0.911075E-013
 0.911069E-013
 0.911063E-013
 0.911057E-013
 0.911051E-013
 0.911045E-013
 0.911039E-013
 0.911033E-013
 0.911028E-013
 0.911022E-013
 0.911016E-013
 0.911011E-013
 0.911005E-013
 0.911000E-013
 0.910995E-013
 0.910991E-013
 0.910986E-013
 0.910982E-013
 0.910978E-013
 0.910975E-013
 0.910971E-013
 0.910968E-013
 0.910965E-013
 0.910962E-013
 0.910960E-013
 0.910957E-013
 0.910955E-013
 0.910953E-013
 0.910952E-013
 0.910950E-013
 0.910949E-013
 0.910947E-013
 0.910946E-013
 0.910945E-013
 0.910944E-013
 0.910943E-013
 0.910943E-013
 0.910942E-013
 0.910942E-013
 0.910941E-013
 0.910941E-013
 0.910940E-013
 0.910940E-013
 0.910940E-013
 0.910940E-013
 0.910939E-013
 0.910939E-013
 0.910939E-013
 0.910939E-013
 0.910927E-013
 0.912002E-013
 0.912105E-013
 0.910926E-013
 0.910939E-013
 0.910939E-013
 0.910940E-013
 0.910940E-013
 0.910940E-013
 0.910940E-013
 0.910941E-013
 0.910941E-013
 0.910941E-013
 0.910942E-013
 0.910942E-013
 0.910943E-013
 0.910944E-013
 0.910945E-013
 0.910946E-013
 0.910947E-013
 0.910948E-013
 0.910949E-013
 0.910951E-013
 0.910952E-013
 0.910954E-013
 0.910956E-013
 0.910958E-013
 0.910961E-013
 0.910964E-013
 0.910967E-013
 0.910970E-013
 0.910973E-013
 0.910977E-013
 0.910981E-013
 0.910986E-013
 0.910990E-013
 0.910995E-013
 0.911000E-013
 0.911006E-013
 0.911011E-013
 0.911017E-013
 0.911024E-013
 0.911030E-013
 0.911037E-013
 0.911044E-013
 0.911050E-013
 0.911058E-013
 0.911065E-013
 0.911072E-013
 0.911079E-013
 0.911086E-013