# vtk DataFile Version 3.0
Solution data
ASCII
DATASET STRUCTURED_GRID
DIMENSIONS 128 128 1
POINTS 16384  double
      0.000004      0.000004      0.000000
      0.000012      0.000004      0.000000
      0.000020      0.000004      0.000000
      0.000027      0.000004      0.000000
      0.000035      0.000004      0.000000
      0.000043      0.000004      0.000000
      0.000051      0.000004      0.000000
      0.000059      0.000004      0.000000
      0.000066      0.000004      0.000000
      0.000074      0.000004      0.000000
      0.000082      0.000004      0.000000
      0.000090      0.000004      0.000000
      0.000098      0.000004      0.000000
      0.000105      0.000004      0.000000
      0.000113      0.000004      0.000000
      0.000121      0.000004      0.000000
      0.000129      0.000004      0.000000
      0.000137      0.000004      0.000000
      0.000145      0.000004      0.000000
      0.000152      0.000004      0.000000
      0.000160      0.000004      0.000000
      0.000168      0.000004      0.000000
      0.000176      0.000004      0.000000
      0.000184      0.000004      0.000000
      0.000191      0.000004      0.000000
      0.000199      0.000004      0.000000
      0.000207      0.000004      0.000000
      0.000215      0.000004      0.000000
      0.000223      0.000004      0.000000
      0.000230      0.000004      0.000000
      0.000238      0.000004      0.000000
      0.000246      0.000004      0.000000
      0.000254      0.000004      0.000000
      0.000262      0.000004      0.000000
      0.000270      0.000004      0.000000
      0.000277      0.000004      0.000000
      0.000285      0.000004      0.000000
      0.000293      0.000004      0.000000
      0.000301      0.000004      0.000000
      0.000309      0.000004      0.000000
      0.000316      0.000004      0.000000
      0.000324      0.000004      0.000000
      0.000332      0.000004      0.000000
      0.000340      0.000004      0.000000
      0.000348      0.000004      0.000000
      0.000355      0.000004      0.000000
      0.000363      0.000004      0.000000
      0.000371      0.000004      0.000000
      0.000379      0.000004      0.000000
      0.000387      0.000004      0.000000
      0.000395      0.000004      0.000000
      0.000402      0.000004      0.000000
      0.000410      0.000004      0.000000
      0.000418      0.000004      0.000000
      0.000426      0.000004      0.000000
      0.000434      0.000004      0.000000
      0.000441      0.000004      0.000000
      0.000449      0.000004      0.000000
      0.000457      0.000004      0.000000
      0.000465      0.000004      0.000000
      0.000473      0.000004      0.000000
      0.000480      0.000004      0.000000
      0.000488      0.000004      0.000000
      0.000496      0.000004      0.000000
      0.000504      0.000004      0.000000
      0.000512      0.000004      0.000000
      0.000520      0.000004      0.000000
      0.000527      0.000004      0.000000
      0.000535      0.000004      0.000000
      0.000543      0.000004      0.000000
      0.000551      0.000004      0.000000
      0.000559      0.000004      0.000000
      0.000566      0.000004      0.000000
      0.000574      0.000004      0.000000
      0.000582      0.000004      0.000000
      0.000590      0.000004      0.000000
      0.000598      0.000004      0.000000
      0.000605      0.000004      0.000000
      0.000613      0.000004      0.000000
      0.000621      0.000004      0.000000
      0.000629      0.000004      0.000000
      0.000637      0.000004      0.000000
      0.000645      0.000004      0.000000
      0.000652      0.000004      0.000000
      0.000660      0.000004      0.000000
      0.000668      0.000004      0.000000
      0.000676      0.000004      0.000000
      0.000684      0.000004      0.000000
      0.000691      0.000004      0.000000
      0.000699      0.000004      0.000000
      0.000707      0.000004      0.000000
      0.000715      0.000004      0.000000
      0.000723      0.000004      0.000000
      0.000730      0.000004      0.000000
      0.000738      0.000004      0.000000
      0.000746      0.000004      0.000000
      0.000754      0.000004      0.000000
      0.000762      0.000004      0.000000
      0.000770      0.000004      0.000000
      0.000777      0.000004      0.000000
      0.000785      0.000004      0.000000
      0.000793      0.000004      0.000000
      0.000801      0.000004      0.000000
      0.000809      0.000004      0.000000
      0.000816      0.000004      0.000000
      0.000824      0.000004      0.000000
      0.000832      0.000004      0.000000
      0.000840      0.000004      0.000000
      0.000848      0.000004      0.000000
      0.000855      0.000004      0.000000
      0.000863      0.000004      0.000000
      0.000871      0.000004      0.000000
      0.000879      0.000004      0.000000
      0.000887      0.000004      0.000000
      0.000895      0.000004      0.000000
      0.000902      0.000004      0.000000
      0.000910      0.000004      0.000000
      0.000918      0.000004      0.000000
      0.000926      0.000004      0.000000
      0.000934      0.000004      0.000000
      0.000941      0.000004      0.000000
      0.000949      0.000004      0.000000
      0.000957      0.000004      0.000000
      0.000965      0.000004      0.000000
      0.000973      0.000004      0.000000
      0.000980      0.000004      0.000000
      0.000988      0.000004      0.000000
      0.000996      0.000004      0.000000
      0.000004      0.000012      0.000000
      0.000012      0.000012      0.000000
      0.000020      0.000012      0.000000
      0.000027      0.000012      0.000000
      0.000035      0.000012      0.000000
      0.000043      0.000012      0.000000
      0.000051      0.000012      0.000000
      0.000059      0.000012      0.000000
      0.000066      0.000012      0.000000
      0.000074      0.000012      0.000000
      0.000082      0.000012      0.000000
      0.000090      0.000012      0.000000
      0.000098      0.000012      0.000000
      0.000105      0.000012      0.000000
      0.000113      0.000012      0.000000
      0.000121      0.000012      0.000000
      0.000129      0.000012      0.000000
      0.000137      0.000012      0.000000
      0.000145      0.000012      0.000000
      0.000152      0.000012      0.000000
      0.000160      0.000012      0.000000
      0.000168      0.000012      0.000000
      0.000176      0.000012      0.000000
      0.000184      0.000012      0.000000
      0.000191      0.000012      0.000000
      0.000199      0.000012      0.000000
      0.000207      0.000012      0.000000
      0.000215      0.000012      0.000000
      0.000223      0.000012      0.000000
      0.000230      0.000012      0.000000
      0.000238      0.000012      0.000000
      0.000246      0.000012      0.000000
      0.000254      0.000012      0.000000
      0.000262      0.000012      0.000000
      0.000270      0.000012      0.000000
      0.000277      0.000012      0.000000
      0.000285      0.000012      0.000000
      0.000293      0.000012      0.000000
      0.000301      0.000012      0.000000
      0.000309      0.000012      0.000000
      0.000316      0.000012      0.000000
      0.000324      0.000012      0.000000
      0.000332      0.000012      0.000000
      0.000340      0.000012      0.000000
      0.000348      0.000012      0.000000
      0.000355      0.000012      0.000000
      0.000363      0.000012      0.000000
      0.000371      0.000012      0.000000
      0.000379      0.000012      0.000000
      0.000387      0.000012      0.000000
      0.000395      0.000012      0.000000
      0.000402      0.000012      0.000000
      0.000410      0.000012      0.000000
      0.000418      0.000012      0.000000
      0.000426      0.000012      0.000000
      0.000434      0.000012      0.000000
      0.000441      0.000012      0.000000
      0.000449      0.000012      0.000000
      0.000457      0.000012      0.000000
      0.000465      0.000012      0.000000
      0.000473      0.000012      0.000000
      0.000480      0.000012      0.000000
      0.000488      0.000012      0.000000
      0.000496      0.000012      0.000000
      0.000504      0.000012      0.000000
      0.000512      0.000012      0.000000
      0.000520      0.000012      0.000000
      0.000527      0.000012      0.000000
      0.000535      0.000012      0.000000
      0.000543      0.000012      0.000000
      0.000551      0.000012      0.000000
      0.000559      0.000012      0.000000
      0.000566      0.000012      0.000000
      0.000574      0.000012      0.000000
      0.000582      0.000012      0.000000
      0.000590      0.000012      0.000000
      0.000598      0.000012      0.000000
      0.000605      0.000012      0.000000
      0.000613      0.000012      0.000000
      0.000621      0.000012      0.000000
      0.000629      0.000012      0.000000
      0.000637      0.000012      0.000000
      0.000645      0.000012      0.000000
      0.000652      0.000012      0.000000
      0.000660      0.000012      0.000000
      0.000668      0.000012      0.000000
      0.000676      0.000012      0.000000
      0.000684      0.000012      0.000000
      0.000691      0.000012      0.000000
      0.000699      0.000012      0.000000
      0.000707      0.000012      0.000000
      0.000715      0.000012      0.000000
      0.000723      0.000012      0.000000
      0.000730      0.000012      0.000000
      0.000738      0.000012      0.000000
      0.000746      0.000012      0.000000
      0.000754      0.000012      0.000000
      0.000762      0.000012      0.000000
      0.000770      0.000012      0.000000
      0.000777      0.000012      0.000000
      0.000785      0.000012      0.000000
[...]
POINT_DATA 16384
SCALARS rhoe double
LOOKUP_TABLE default
 0.915079E-013
 0.913147E-013
 0.915022E-013
 0.915867E-013
 0.916929E-013
 0.917950E-013
 0.918975E-013
 0.919997E-013
 0.921016E-013
 0.922032E-013
 0.923046E-013
 0.924057E-013
 0.925065E-013
 0.926070E-013
 0.927071E-013
 0.928069E-013
 0.929063E-013
 0.930053E-013
 0.931039E-013
 0.932019E-013
 0.932995E-013
 0.933965E-013
 0.934929E-013
 0.935887E-013
 0.936837E-013
 0.937781E-013
 0.938716E-013
 0.939642E-013
 0.940559E-013
 0.941465E-013
 0.942361E-013
 0.943245E-013
 0.944117E-013
 0.944976E-013
 0.945820E-013
 0.946650E-013
 0.947463E-013
 0.948259E-013
 0.949038E-013
 0.949798E-013
 0.950538E-013
 0.951257E-013
 0.951954E-013
 0.952628E-013
 0.953278E-013
 0.953904E-013
 0.954503E-013
 0.955075E-013
 0.955620E-013
 0.956135E-013
 0.956621E-013
 0.957076E-013
 0.957500E-013
 0.957891E-013
 0.958249E-013
 0.958574E-013
 0.958864E-013
 0.959119E-013
 0.959339E-013
 0.959523E-013
 0.959670E-013
 0.959781E-013
 0.959855E-013
 0.959892E-013
 0.959892E-013
 0.959855E-013
 0.959781E-013
 0.959670E-013
 0.959523E-013
 0.959339E-013
 0.959119E-013
 0.958864E-013
 0.958574E-013
 0.958249E-013
 0.957891E-013
 0.957500E-013
 0.957076E-013
 0.956621E-013
 0.956135E-013
 0.955619E-013
 0.955075E-013
 0.954502E-013
 0.953903E-013
 0.953278E-013
 0.952627E-013
 0.951953E-013
 0.951256E-013
 0.950537E-013
 0.949797E-013
 0.949037E-013
 0.948259E-013
 0.947462E-013
 0.946649E-013
 0.945819E-013
 0.944975E-013
 0.944116E-013
 0.943245E-013
 0.942360E-013
 0.941465E-013
 0.940558E-013
 0.939641E-013
 0.938715E-013
 0.937780E-013
 0.936837E-013
 0.935886E-013
 0.934928E-013
 0.933964E-013
 0.932994E-013
 0.932019E-013
 0.931038E-013
 0.930053E-013
 0.929063E-013
 0.928069E-013
 0.927071E-013
 0.926069E-013
 0.925065E-013
 0.924057E-013
 0.923046E-013
 0.922032E-013
 0.921015E-013
 0.919996E-013
 0.918975E-013
 0.917950E-013
 0.916929E-013
 0.915867E-013
 0.915022E-013
 0.913147E-013
 0.915079E-013
 0.913147E-013
 0.908979E-013
 0.909807E-013
 0.909132E-013
 0.908801E-013
 0.908409E-013
 0.908027E-013
 0.907645E-013
 0.907264E-013
 0.906885E-013
 0.906506E-013
 0.906129E-013
 0.905753E-013
 0.905379E-013
 0.905005E-013
 0.904633E-013
 0.904263E-013
 0.903894E-013
 0.903528E-013
 0.903162E-013
 0.902800E-013
 0.902439E-013
 0.902080E-013
 0.901724E-013
 0.901371E-013
 0.901021E-013
 0.900673E-013
 0.900329E-013
 0.899989E-013
 0.899653E-013
 0.899320E-013
 0.898992E-013
 0.898669E-013
 0.898351E-013
 0.898038E-013
 0.897731E-013
 0.897429E-013
 0.897134E-013
 0.896846E-013
 0.896565E-013
 0.896291E-013
 0.896025E-013
 0.895767E-013
 0.895518E-013
 0.895278E-013
 0.895046E-013
 0.894825E-013
 0.894613E-013
 0.894412E-013
 0.894222E-013
 0.894042E-013
 0.893874E-013
 0.893718E-013
 0.893574E-013
 0.893441E-013
 0.893322E-013
 0.893214E-013
 0.893120E-013
 0.893039E-013
 0.892971E-013
 0.892917E-013
 0.892876E-013
 0.892849E-013
 0.892835E-013
 0.892835E-013
 0.892849E-013
 0.892876E-013
 0.892917E-013
 0.892972E-013
 0.893039E-013
 0.893120E-013
 0.893215E-013
 0.893322E-013
 0.893442E-013
 0.893574E-013
 0.893718E-013
 0.893875E-013
 0.894043E-013
 0.894222E-013
 0.894413E-013
 0.894614E-013
 0.894825E-013
 0.895047E-013
 0.895278E-013
 0.895518E-013
 0.895768E-013
 0.896026E-013
 0.896292E-013
 0.896565E-013
 0.896847E-013
 0.897135E-013
 0.897430E-013
 0.897731E-013
 0.898038E-013
 0.898351E-013
 0.898670E-013
 0.898993E-013
 0.899321E-013
 0.899653E-013
 0.899990E-013
 0.900330E-013
 0.900674E-013
 0.901021E-013
 0.901372E-013
 0.901725E-013
 0.902081E-013
 0.902439E-013
 0.902800E-013
 0.903163E-013
 0.903528E-013
 0.903895E-013
 0.904264E-013
 0.904634E-013
 0.905006E-013
 0.905379E-013
 0.905754E-013
 0.906130E-013
 0.906507E-013
 0.906885E-013
 0.907265E-013
 0.907645E-013
 0.908027E-013
 0.908409E-013
 0.908801E-013
 0.909132E-013
 0.909807E-013
 0.908979E-013
 0.913147E-013
 0.915022E-013
 0.909807E-013
 0.911630E-013
 0.911317E-013
 0.911496E-013
 0.911584E-013
 0.911685E-013
 0.911785E-013
 0.911884E-013
 0.911983E-013
 0.912082E-013
 0.912180E-013
 0.912278E-013
 0.912376E-013
 0.912473E-013
 0.912570E-013
 0.912666E-013
 0.912762E-013
 0.912858E-013
 0.912953E-013
 0.913047E-013
 0.913141E-013
 0.913235E-013
 0.913327E-013
 0.913419E-013
 0.913511E-013
 0.913601E-013
 0.913690E-013
 0.913779E-013
 0.913867E-013
 0.913953E-013
 0.914038E-013
 0.914123E-013
 0.914205E-013
 0.914287E-013
 0.914367E-013
 0.914445E-013
 0.914522E-013
 0.914597E-013
 0.914670E-013
 0.914741E-013
 0.914810E-013
 0.914878E-013
 0.914942E-013
 0.915005E-013
 0.915065E-013
 0.915123E-013
 0.915178E-013
 0.915230E-013
 0.915280E-013
 0.915326E-013
 0.915370E-013
 0.915411E-013
 0.915448E-013
 0.915483E-013
 0.915514E-013
 0.915542E-013
 0.915566E-013
 0.915587E-013
 0.915605E-013
 0.915619E-013
 0.915630E-013
 0.915637E-013
 0.915640E-013
 0.915640E-013
 0.915637E-013
 0.915630E-013
 0.915619E-013
 0.915605E-013
 0.915587E-013
 0.915566E-013
 0.915542E-013
 0.915514E-013
 0.915483E-013
 0.915448E-013
 0.915411E-013
 0.915370E-013
 0.915326E-013
 0.915280E-013
 0.915230E-013
 0.915178E-013
 0.915123E-013
 0.915065E-013
 0.915005E-013
 0.914942E-013
 0.914877E-013
 0.914810E-013
 0.914741E-013
 0.914670E-013
 0.914597E-013
 0.914522E-013
 0.914445E-013
 0.914367E-013
 0.914287E-013
 0.914205E-013
 0.914122E-013
 0.914038E-013
 0.913953E-013
 0.913866E-013
 0.913779E-013
 0.913690E-013
 0.913601E-013
 0.913510E-013
 0.913419E-013
 0.913327E-013
 0.913235E-013
 0.913141E-013
 0.913047E-013
 0.912953E-013
 0.912858E-013
 0.912762E-013
 0.912666E-013
 0.912570E-013
 0.912473E-013
 0.912375E-013
 0.912278E-013
 0.912180E-013
 0.912081E-013
 0.911983E-013
 0.911884E-013
 0.911785E-013
 0.911685E-013
 0.911584E-013
 0.911496E-013
 0.911317E-013
 0.911630E-013
 0.909807E-013
 0.915022E-013
 0.915867E-013
 0.909132E-013
 0.911317E-013
 0.910764E-013
 0.910845E-013
 0.910809E-013
 0.910791E-013
 0.910771E-013
 0.910751E-013
 0.910732E-013
 0.910712E-013
 0.910692E-013
 0.910673E-013
 0.910654E-013
 0.910634E-013
 0.910615E-013
 0.910596E-013
 0.910577E-013
 0.910558E-013
 0.910539E-013
 0.910520E-013
 0.910501E-013
 0.910483E-013
 0.910465E-013
 0.910446E-013
 0.910428E-013
 0.910410E-013
 0.910393E-013
 0.910375E-013
 0.910358E-013
 0.910341E-013
 0.910324E-013
 0.910307E-013
 0.910291E-013
 0.910275E-013
 0.910259E-013
 0.910244E-013
 0.910229E-013
 0.910214E-013
 0.910199E-013
 0.910185E-013
 0.910172E-013
 0.910159E-013
 0.910146E-013
 0.910134E-013
 0.910122E-013
 0.910111E-013
 0.910100E-013
 0.910090E-013
 0.910080E-013
 0.910071E-013
 0.910062E-013
 0.910054E-013
 0.910047E-013
 0.910040E-013
 0.910034E-013
 0.910029E-013
 0.910024E-013
 0.910020E-013
 0.910017E-013
 0.910014E-013
 0.910012E-013
 0.910010E-013
 0.910010E-013
 0.910010E-013
 0.910010E-013
 0.910012E-013
 0.910014E-013
 0.910017E-013
 0.910020E-013
 0.910024E-013
 0.910029E-013
 0.910034E-013
 0.910040E-013
 0.910047E-013
 0.910054E-013
 0.910062E-013
 0.910071E-013
 0.910080E-013
 0.910090E-013
 0.910100E-013
 0.910111E-013
 0.910122E-013
 0.910134E-013
 0.910146E-013
 0.910159E-013
 0.910172E-013
 0.910185E-013
 0.910199E-013
 0.910214E-013
 0.910229E-013
 0.910244E-013
 0.910259E-013
 0.910275E-013
 0.910291E-013
 0.910307E-013
 0.910324E-013
 0.910341E-013
 0.910358E-013
 0.910375E-013
 0.910393E-013
 0.910410E-013
 0.910428E-013
 0.910446E-013
 0.910465E-013
 0.910483E-013
 0.910501E-013
 0.910520E-013
 0.910539E-013
 0.910558E-013
 0.910577E-013
 0.910596E-013
 0.910615E-013
 0.910634E-013
 0.910654E-013
 0.910673E-013
 0.910692E-013
 0.910712E-013
 0.910732E-013
 0.910751E-013
 0.910771E-013
 0.910791E-013
 0.910809E-013
 0.910845E-013
 0.910764E-013
 0.911317E-013
 0.909132E-013
 0.915867E-013
 0.916929E-013
 0.908801E-013
 0.911496E-013
 0.910845E-013
 0.910973E-013
 0.910956E-013
 0.910962E-013
 0.910965E-013
 0.910968E-013
 0.910971E-013
 0.910975E-013
 0.910978E-013
 0.910981E-013
 0.910984E-013
 0.910987E-013
 0.910990E-013
 0.910993E-013
 0.910996E-013
 0.910999E-013
 0.911003E-013
 0.911006E-013
 0.911009E-013
 0.911012E-013
 0.911015E-013
 0.911018E-013
 0.911020E-013
 0.911023E-013
 0.911026E-013
 0.911029E-013
 0.911032E-013
 0.911035E-013
 0.911038E-013
 0.911040E-013
 0.911043E-013
 0.911046E-013
 0.911048E-013
 0.911051E-013
 0.911054E-013
 0.911056E-013
 0.911058E-013
 0.911061E-013
 0.911063E-013
 0.911065E-013
 0.911068E-013
 0.911070E-013
 0.911072E-013
 0.911074E-013
 0.911076E-013
 0.911077E-013
 0.911079E-013
 0.911081E-013
 0.911082E-013
 0.911084E-013
 0.911085E-013
 0.911086E-013
 0.911087E-013
 0.911088E-013
 0.911089E-013
 0.911090E-013
 0.911090E-013
 0.911091E-013
 0.911091E-013
 0.911091E-013
 0.911092E-013
 0.911092E-013
 0.911091E-013
 0.911091E-013
 0.911091E-013
 0.911090E-013
 0.911090E-013
 0.911089E-013
 0.911088E-013
 0.911087E-013
 0.911086E-013
 0.911085E-013
 0.911084E-013
 0.911082E-013
 0.911081E-013
 0.911079E-013
 0.911077E-013
 0.911076E-013
 0.911074E-013
 0.911072E-013
 0.911070E-013
 0.911068E-013
 0.911065E-013
 0.911063E-013
 0.911061E-013
 0.911058E-013
 0.911056E-013
 0.911054E-013
 0.911051E-013
 0.911048E-013
 0.911046E-013
 0.911043E-013
 0.911040E-013
 0.911038E-013
 0.911035E-013
 0.911032E-013
 0.911029E-013
 0.911026E-013
 0.911023E-013
 0.911020E-013
 0.911018E-013
 0.911015E-013
 0.911012E-013
 0.911009E-013
 0.911006E-013
 0.911003E-013
 0.910999E-013
 0.910996E-013
 0.910993E-013
 0.910990E-013
 0.910987E-013
 0.910984E-013
 0.910981E-013
 0.910978E-013
 0.910975E-013
 0.910971E-013
 0.910968E-013
 0.910965E-013
 0.910962E-013
 0.910956E-013
 0.910973E-013
 0.910845E-013
 0.911496E-013
 0.908801E-013
 0.916929E-013
 0.917950E-013
 0.908409E-013
 0.911584E-013
 0.910809E-013
 0.910956E-013
 0.910933E-013
 0.910935E-013
 0.910935E-013
 0.910934E-013
 0.910934E-013
 0.910933E-013
 0.910933E-013
 0.910933E-013
 0.910932E-013
 0.910932E-013
 0.910931E-013
 0.910931E-013
 0.910931E-013
 0.910930E-013
 0.910930E-013
 0.910929E-013
 0.910929E-013
 0.910929E-013
 0.910928E-013
 0.910928E-013
 0.910928E-013
 0.910927E-013
 0.910927E-013
 0.910927E-013
 0.910926E-013
 0.910926E-013
 0.910926E-013
 0.910925E-013
 0.910925E-013
 0.910925E-013
 0.910925E-013
 0.910925E-013
 0.910924E-013
 0.910924E-013
 0.910924E-013
 0.910924E-013
 0.910924E-013
 0.910923E-013
 0.910923E-013
 0.910923E-013
 0.910923E-013
 0.910923E-013
 0.910923E-013
 0.910923E-013
 0.910923E-013
 0.910923E-013
 0.910923E-013
 0.910923E-013
 0.910923E-013
 0.910923E-013
 0.910923E-013
 0.910923E-013
 0.910923E-013
 0.910923E-013
 0.910923E-013
 0.910923E-013
 0.910923E-013
 0.910923E-013
 0.910923E-013
 0.910923E-013
 0.910923E-013
 0.910923E-013
 0.910923E-013
 0.910923E-013
 0.910923E-013
 0.910923E-013
 0.910923E-013
 0.910923E-013
 0.910923E-013
 0.910923E-013
 0.910923E-013
 0.910923E-013
 0.910923E-013
 0.910923E-013
 0.910923E-013
 0.910923E-013
 0.910923E-013
 0.910923E-013
 0.910923E-013
 0.910923E-013
 0.910924E-013
 0.910924E-013
 0.910924E-013
 0.910924E-013
 0.910924E-013
 0.910924E-013
 0.910925E-013
 0.910925E-013
 0.910925E-013
 0.910925E-013
 0.910925E-013
 0.910926E-013
 0.910926E-013
 0.910926E-013
 0.910927E-013
 0.910927E-013
 0.910927E-013
 0.910928E-013
 0.910928E-013
 0.910928E-013
 0.910929E-013
 0.910929E-013
 0.910929E-013
 0.910930E-013
 0.910930E-013
 0.910931E-013
 0.910931E-013
 0.910931E-013
 0.910932E-013
 0.910932E-013
 0.910933E-013
 0.910933E-013
 0.910933E-013
 0.910934E-013
 0.910934E-013
 0.910935E-013
 0.910935E-013
 0.910933E-013
 0.910956E-013
 0.910809E-013
 0.911584E-013
 0.908409E-013
 0.917950E-013
 0.918975E-013
 0.908027E-013
 0.911685E-013
 0.910791E-013
 0.910962E-013
 0.910935E-013
 0.910939E-013
 0.910939E-013
 0.910939E-013
 0.910939E-013
 0.910939E-013
 0.910939E-013
 0.910939E-013
 0.910939E-013
 0.910939E-013
 0.910939E-013
 0.910939E-013
 0.910939E-013
 0.910939E-013
 0.910939E-013
 0.910940E-013
 0.910940E-013
 0.910940E-013
 0.910940E-013
 0.910940E-013
 0.910940E-013
 0.910940E-013
 0.910940E-013
 0.910940E-013
 0.910940E-013
 0.910941E-013
 0.910941E-013
 0.910941E-013
 0.910941E-013
 0.910941E-013
 0.910941E-013
 0.910942E-013
 0.910942E-013
 0.910942E-013
 0.910942E-013
 0.910942E-013
 0.910943E-013
 0.910943E-013
 0.910943E-013
 0.910943E-013
 0.910943E-013
 0.910944E-013
 0.910944E-013
 0.910944E-013
 0.910944E-013
 0.910944E-013
 0.910945E-013
 0.910945E-013
 0.910945E-013
 0.910945E-013
 0.910945E-013
 0.910945E-013
 0.910946E-013
 0.910946E-013
 0.910946E-013
 0.910946E-013
 0.910946E-013
 0.910946E-013
 0.910946E-013
 0.910946E-013
 0.910946E-013
 0.910946E-013
 0.910946E-013
 0.910946E-013
 0.910946E-013
 0.910946E-013
 0.910945E-013
 0.910945E-013
 0.910945E-013
 0.910945E-013
 0.910945E-013
 0.910945E-013
 0.910944E-013
 0.910944E-013
 0.910944E-013
 0.910944E-013
 0.910944E-013
 0.910943E-013
 0.910943E-013
 0.910943E-013
 0.910943E-013
 0.910943E-013
 0.910942E-013
 0.910942E-013
 0.910942E-013
 0.910942E-013
 0.910942E-013
 0.910941E-013
 0.910941E-013
 0.910941E-013
 0.910941E-013
 0.910941E-013
 0.910941E-013
 0.910940E-013
 0.910940E-013
 0.910940E-013
 0.910940E-013
 0.910940E-013
 0.910940E-013
 0.910940E-013
 0.910940E-013
 0.910940E-013
 0.910940E-013
 0.910939E-013
 0.910939E-013
 0.910939E-013
 0.910939E-013
 0.910939E-013
 0.910939E-013
 0.910939E-013
 0.910939E-013
 0.910939E-013
 0.910939E-013
 0.910939E-013
 0.910939E-013
 0.910939E-013
 0.910939E-013
 0.910935E-013
 0.910962E-013
 0.910791E-013
 0.911685E-013
 0.908027E-013
 0.918975E-013
 0.919997E-013
 0.907645E-013
 0.911785E-013
 0.910771E-013
 0.910965E-013
 0.910935E-013
 0.910939E-013
 0.910938E-013
 0.910938E-013
 0.910938E-013
 0.910938E-013
 0.910938E-013
 0.910938E-013
 0.910938E-013
 0.910938E-013
 0.910938E-013
 0.910938E-013
 0.910938E-013
 0.910938E-013
 0.910938E-013
 0.910938E-013
 0.910938E-013
 0.910938E-013
 0.910939E-013
 0.910939E-013
 0.910939E-013
 0.910939E-013
 0.910939E-013
 0.910939E-013
 0.910939E-013
 0.910939E-013
 0.910939E-013
 0.910939E-013
 0.910939E-013
 0.910940E-013
 0.910940E-013
 0.910940E-013
 0.910940E-013
 0.910940E-013
 0.910940E-013
 0.910941E-013
 0.910941E-013
 0.910941E-013
 0.910941E-013
 0.910942E-013
 0.910942E-013
 0.910942E-013
 0.910942E-013
 0.910942E-013
 0.910943E-013
 0.910943E-013
 0.910943E-013
 0.910943E-013
 0.910943E-013
 0.910944E-013
 0.910944E-013
 0.910944E-013
 0.910944E-013
 0.910944E-013
 0.910944E-013
 0.910944E-013
 0.910944E-013
 0.910944E-013
 0.910944E-013
 0.910944E-013
 0.910944E-013
 0.910944E-013
 0.910944E-013
 0.910944E-013
 0.910944E-013
 0.910944E-013
 0.910944E-013
 0.910944E-013
 0.910944E-013
 0.910943E-013
 0.910943E-013
 0.910943E-013
 0.910943E-013
 0.910943E-013
 0.910942E-013
 0.910942E-013
 0.910942E-013
 0.910942E-013
 0.910942E-013
 0.910941E-013
 0.910941E-013
 0.910941E-013
 0.910941E-013
 0.910940E-013
 0.910940E-013
 0.910940E-013
 0.910940E-013
 0.910940E-013
 0.910940E-013
 0.910939E-013
 0.910939E-013
 0.910939E-013
 0.910939E-013
 0.910939E-013
 0.910939E-013
 0.910939E-013
 0.910939E-013
 0.910939E-013
 0.910939E-013
 0.910939E-013
 0.910939E-013
 0.910938E-013
 0.910938E-013
 0.910938E-013
 0.910938E-013
 0.910938E-013
 0.910938E-013
 0.910938E-013
 0.910938E-013
 0.910938E-013
 0.910938E-013
 0.910938E-013
 0.910938E-013
 0.910938E-013
 0.910938E-013
 0.910938E-013
 0.910939E-013
 0.910935E-013
 0.910965E-013
 0.910771E-013
 0.911785E-013
 0.907645E-013
 0.919996E-013
 0.921016E-013
 0.907264E-013
 0.911884E-013
 0.910751E-013
 0.910968E-013
 0.910934E-013
 0.910939E-013
 0.910938E-013
 0.910938E-013
 0.910938E-013
 0.910938E-013
 0.910938E-013
 0.910938E-013
 0.910938E-013
 0.910938E-013
 0.910938E-013
 0.910938E-013
 0.910938E-013
 0.910938E-013
 0.910939E-013
 0.910939E-013
 0.910939E-013
 0.910939E-013
 0.910939E-013
 0.910939E-013
 0.910939E-013
 0.910939E-013
 0.910939E-013
 0.910939E-013
 0.910939E-013
 0.910939E-013
 0.910940E-013
 0.910940E-013
 0.910940E-013
 0.910940E-013
 0.910940E-013
 0.910940E-013
 0.910941E-013
 0.910941E-013
 0.910941E-013
 0.910941E-013
 0.910942E-013
 0.910942E-013
 0.910942E-013
 0.910942E-013
 0.910943E-013
 0.910943E-013
 0.910943E-013
 0.910943E-013
 0.910944E-013
 0.910944E-013
 0.910944E-013
 0.910944E-013
 0.910945E-013
 0.910945E-013
 0.910945E-013
 0.910945E-013
 0.910945E-013
 0.910946E-013
 0.910946E-013
 0.910946E-013
 0.910946E-013
 0.910946E-013
 0.910946E-013
 0.910946E-013
 0.910946E-013
 0.910946E-013
 0.910946E-013
 0.910946E-013
 0.910946E-013
 0.910945E-013
 0.910945E-013
 0.910945E-013
 0.910945E-013
 0.910945E-013
 0.910944E-013
 0.910944E-013
 0.910944E-013
 0.910944E-013
 0.910943E-013
 0.910943E-013
 0.910943E-013
 0.910943E-013
 0.910942E-013
 0.910942E-013
 0.910942E-013
 0.910942E-013
 0.910941E-013
 0.910941E-013
 0.910941E-013
 0.910941E-013
 0.910941E-013
 0.910940E-013
 0.910940E-013
 0.910940E-013
 0.910940E-013
 0.910940E-013
 0.910939E-013
 0.910939E-013
 0.910939E-013
 0.910939E-013
 0.910939E-013
 0.910939E-013
 0.910939E-013
 0.910939E-013
 0.910939E-013
 0.910939E-013
 0.910939E-013
 0.910939E-013
 0.910939E-013
 0.910938E-013
 0.910938E-013
 0.910938E-013
 0.910938E-013
 0.910938E-013
 0.910938E-013
 0.910938E-013
 0.910938E-013
 0.910938E-013
 0.910938E-013
 0.910938E-013
 0.910939E-013
 0.910934E-013
 0.910968E-013
 0.910751E-013
 0.911884E-013
 0.907265E-013
 0.921015E-013
 0.922032E-013
 0.906885E-013
 0.911983E-013
 0.910732E-013
 0.910971E-013
 0.910934E-013
 0.910939E-013
 0.910938E-013
 0.910938E-013
 0.910938E-013
 0.910938E-013
 0.910938E-013
 0.910938E-013
 0.910938E-013
 0.910938E-013
 0.910938E-013
 0.910938E-013
 0.910938E-013
 0.910939E-013
 0.910939E-013
 0.910939E-013
 0.910939E-013
 0.910939E-013
 0.910939E-013
 0.910939E-013
 0.910939E-013
 0.910939E-013
 0.910939E-013
 0.910939E-013
 0.910940E-013
 0.910940E-013
 0.910940E-013
 0.910940E-013
 0.910940E-013
 0.910940E-013
 0.910941E-013
 0.910941E-013
 0.910941E-013
 0.910941E-013
 0.910942E-013
 0.910942E-013
 0.910942E-013
 0.910943E-013
 0.910943E-013
 0.910943E-013
 0.910943E-013
 0.910944E-013
 0.910944E-013
 0.910944E-013
 0.910945E-013
 0.910945E-013
 0.910945E-013
 0.910946E-013
 0.910946E-013
 0.910946E-013
 0.910946E-013
 0.910947E-013
 0.910947E-013
 0.910947E-013
 0.910947E-013
 0.910947E-013
 0.910947E-013
 0.910947E-013
 0.910947E-013
 0.910947E-013
 0.910947E-013
 0.910947E-013
 0.910947E-013
 0.910947E-013
 0.910947E-013
 0.910947E-013
 0.910947E-013
 0.910946E-013
 0.910946E-013
 0.910946E-013
 0.910946E-013
 0.910945E-013
 0.910945E-013
 0.910945E-013
 0.910944E-013
 0.910944E-013
 0.910944E-013
 0.910943E-013
 0.910943E-013
 0.910943E-013
 0.910943E-013
 0.910942E-013
 0.910942E-013
 0.910942E-013
 0.910941E-013
 0.910941E-013
 0.910941E-013
 0.910941E-013
 0.910940E-013
 0.910940E-013
 0.910940E-013
 0.910940E-013
 0.910940E-013
 0.910940E-013
 0.910939E-013
 0.910939E-013
 0.910939E-013
 0.910939E-013
 0.910939E-013
 0.910939E-013
 0.910939E-013
 0.910939E-013
 0.910939E-013
 0.910939E-013
 0.910939E-013
 0.910939E-013
 0.910938E-013
 0.910938E-013
 0.910938E-013
 0.910938E-013
 0.910938E-013
 0.910938E-013
 0.910938E-013
 0.910938E-013
 0.910938E-013
 0.910938E-013
 0.910939E-013
 0.910934E-013
 0.910971E-013
 0.910732E-013
 0.911983E-013
 0.906885E-013
 0.922032E-013
 0.923046E-013
 0.906506E-013
 0.912082E-013
 0.910712E-013
 0.910975E-013
 0.910933E-013
 0.910939E-013
 0.910938E-013
 0.910938E-013
 0.910938E-013
 0.910938E-013
 0.910938E-013
 0.910938E-013
 0.910938E-013
 0.910938E-013
 0.910938E-013
 0.910938E-013
 0.910939E-013
 0.910939E-013
 0.910939E-013
 0.910939E-013
 0.910939E-013
 0.910939E-013
 0.910939E-013
 0.910939E-013
 0.910939E-013
 0.910939E-013
 0.910939E-013
 0.910940E-013
 0.910940E-013
 0.910940E-013
 0.910940E-013
 0.910940E-013
 0.910941E-013
 0.910941E-013
 0.910941E-013
 0.910941E-013
 0.910942E-013
 0.910942E-013
 0.910942E-013
 0.910943E-013
 0.910943E-013
 0.910943E-013
 0.910944E-013
 0.910944E-013
 0.910944E-013
 0.910945E-013
 0.910945E-013
 0.910946E-013