# vtk DataFile Version 3.0
Solution data
ASCII
DATASET STRUCTURED_GRID
DIMENSIONS 128 128 1
POINTS 16384  double
      0.000004      0.000004      0.000000
      0.000012      0.000004      0.000000
      0.000020      0.000004      0.000000
      0.000027      0.000004      0.000000
      0.000035      0.000004      0.000000
      0.000043      0.000004      0.000000
      0.000051      0.000004      0.000000
      0.000059      0.000004      0.000000
      0.000066      0.000004      0.000000
      0.000074      0.000004      0.000000
      0.000082      0.000004      0.000000
      0.000090      0.000004      0.000000
      0.000098      0.000004      0.000000
      0.000105      0.000004      0.000000
      0.000113      0.000004      0.000000
      0.000121      0.000004      0.000000
      0.000129      0.000004      0.000000
      0.000137      0.000004      0.000000
      0.000145      0.000004      0.000000
      0.000152      0.000004      0.000000
      0.000160      0.000004      0.000000
      0.000168      0.000004      0.000000
      0.000176      0.000004      0.000000
      0.000184      0.000004      0.000000
      0.000191      0.000004      0.000000
      0.000199      0.000004      0.000000
      0.000207      0.000004      0.000000
      0.000215      0.000004      0.000000
      0.000223      0.000004      0.000000
      0.000230      0.000004      0.000000
      0.000238      0.000004      0.000000
      0.000246      0.000004      0.000000
      0.000254      0.000004      0.000000
      0.000262      0.000004      0.000000
      0.000270      0.000004      0.000000
      0.000277      0.000004      0.000000
      0.000285      0.000004      0.000000
      0.000293      0.000004      0.000000
      0.000301      0.000004      0.000000
      0.000309      0.000004      0.000000
      0.000316      0.000004      0.000000
      0.000324      0.000004      0.000000
      0.000332      0.000004      0.000000
      0.000340      0.000004      0.000000
      0.000348      0.000004      0.000000
      0.000355      0.000004      0.000000
      0.000363      0.000004      0.000000
      0.000371      0.000004      0.000000
      0.000379      0.000004      0.000000
      0.000387      0.000004      0.000000
      0.000395      0.000004      0.000000
      0.000402      0.000004      0.000000
      0.000410      0.000004      0.000000
      0.000418      0.000004      0.000000
      0.000426      0.000004      0.000000
      0.000434      0.000004      0.000000
      0.000441      0.000004      0.000000
      0.000449      0.000004      0.000000
      0.000457      0.000004      0.000000
      0.000465      0.000004      0.000000
      0.000473      0.000004      0.000000
      0.000480      0.000004      0.000000
      0.000488      0.000004      0.000000
      0.000496      0.000004      0.000000
      0.000504      0.000004      0.000000
      0.000512      0.000004      0.000000
      0.000520      0.000004      0.000000
      0.000527      0.000004      0.000000
      0.000535      0.000004      0.000000
      0.000543      0.000004      0.000000
      0.000551      0.000004      0.000000
      0.000559      0.000004      0.000000
      0.000566      0.000004      0.000000
      0.000574      0.000004      0.000000
      0.000582      0.000004      0.000000
      0.000590      0.000004      0.000000
      0.000598      0.000004      0.000000
      0.000605      0.000004      0.000000
      0.000613      0.000004      0.000000
      0.000621      0.000004      0.000000
      0.000629      0.000004      0.000000
      0.000637      0.000004      0.000000
      0.000645      0.000004      0.000000
      0.000652      0.000004      0.000000
      0.000660      0.000004      0.000000
      0.000668      0.000004      0.000000
      0.000676      0.000004      0.000000
      0.000684      0.000004      0.000000
      0.000691      0.000004      0.000000
      0.000699      0.000004      0.000000
      0.000707      0.000004      0.000000
      0.000715      0.000004      0.000000
      0.000723      0.000004      0.000000
      0.000730      0.000004      0.000000
      0.000738      0.000004      0.000000
      0.000746      0.000004      0.000000
      0.000754      0.000004      0.000000
      0.000762      0.000004      0.000000
      0.000770      0.000004      0.000000
      0.000777      0.000004      0.000000
      0.000785      0.000004      0.000000
      0.000793      0.000004      0.000000
      0.000801      0.000004      0.000000
      0.000809      0.000004      0.000000
      0.000816      0.000004      0.000000
      0.000824      0.000004      0.000000
      0.000832      0.000004      0.000000
      0.000840      0.000004      0.000000
      0.000848      0.000004      0.000000
      0.000855      0.000004      0.000000
      0.000863      0.000004      0.000000
      0.000871      0.000004      0.000000
      0.000879      0.000004      0.000000
      0.000887      0.000004      0.000000
      0.000895      0.000004      0.000000
      0.000902      0.000004      0.000000
      0.000910      0.000004      0.000000
      0.000918      0.000004      0.000000
      0.000926      0.000004      0.000000
      0.000934      0.000004      0.000000
      0.000941      0.000004      0.000000
      0.000949      0.000004      0.000000
      0.000957      0.000004      0.000000
      0.000965      0.000004      0.000000
      0.000973      0.000004      0.000000
      0.000980      0.000004      0.000000
      0.000988      0.000004      0.000000
      0.000996      0.000004      0.000000
      0.000004      0.000012      0.000000
      0.000012      0.000012      0.000000
      0.000020      0.000012      0.000000
      0.000027      0.000012      0.000000
      0.000035      0.000012      0.000000
      0.000043      0.000012      0.000000
      0.000051      0.000012      0.000000
      0.000059      0.000012      0.000000
      0.000066      0.000012      0.000000
      0.000074      0.000012      0.000000
      0.000082      0.000012      0.000000
      0.000090      0.000012      0.000000
      0.000098      0.000012      0.000000
      0.000105      0.000012      0.000000
      0.000113      0.000012      0.000000
      0.000121      0.000012      0.000000
      0.000129      0.000012      0.000000
      0.000137      0.000012      0.000000
      0.000145      0.000012      0.000000
      0.000152      0.000012      0.000000
      0.000160      0.000012      0.000000
      0.000168      0.000012      0.000000
      0.000176      0.000012      0.000000
      0.000184      0.000012      0.000000
      0.000191      0.000012      0.000000
      0.000199      0.000012      0.000000
      0.000207      0.000012      0.000000
      0.000215      0.000012      0.000000
      0.000223      0.000012      0.000000
      0.000230      0.000012      0.000000
      0.000238      0.000012      0.000000
      0.000246      0.000012      0.000000
      0.000254      0.000012      0.000000
      0.000262      0.000012      0.000000
      0.000270      0.000012      0.000000
      0.000277      0.000012      0.000000
      0.000285      0.000012      0.000000
      0.000293      0.000012      0.000000
      0.000301      0.000012      0.000000
      0.000309      0.000012      0.000000
      0.000316      0.000012      0.000000
      0.000324      0.000012      0.000000
      0.000332      0.000012      0.000000
      0.000340      0.000012      0.000000
      0.000348      0.000012      0.000000
      0.000355      0.000012      0.000000
      0.000363      0.000012      0.000000
      0.000371      0.000012      0.000000
      0.000379      0.000012      0.000000
      0.000387      0.000012      0.000000
      0.000395      0.000012      0.000000
      0.000402      0.000012      0.000000
      0.000410      0.000012      0.000000
      0.000418      0.000012      0.000000
      0.000426      0.000012      0.000000
      0.000434      0.000012      0.000000
      0.000441      0.000012      0.000000
      0.000449      0.000012      0.000000
      0.000457      0.000012      0.000000
      0.000465      0.000012      0.000000
      0.000473      0.000012      0.000000
      0.000480      0.000012      0.000000
      0.000488      0.000012      0.000000
      0.000496      0.000012      0.000000
      0.000504      0.000012      0.000000
      0.000512      0.000012      0.000000
      0.000520      0.000012      0.000000
      0.000527      0.000012      0.000000
      0.000535      0.000012      0.000000
      0.000543      0.000012      0.000000
      0.000551      0.000012      0.000000
      0.000559      0.000012      0.000000
      0.000566      0.000012      0.000000
      0.000574      0.000012      0.000000
      0.000582      0.000012      0.000000
      0.000590      0.000012      0.000000
      0.000598      0.000012      0.000000
      0.000605      0.000012      0.000000
      0.000613      0.000012      0.000000
      0.000621      0.000012      0.000000
      0.000629      0.000012      0.000000
      0.000637      0.000012      0.000000
      0.000645      0.000012      0.000000
      0.000652      0.000012      0.000000
      0.000660      0.000012      0.000000
      0.000668      0.000012      0.000000
      0.000676      0.000012      0.000000
      0.000684      0.000012      0.000000
      0.000691      0.000012      0.000000
      0.000699      0.000012      0.000000
      0.000707      0.000012      0.000000
      0.000715      0.000012      0.000000
      0.000723      0.000012      0.000000
      0.000730      0.000012      0.000000
      0.000738      0.000012      0.000000
      0.000746      0.000012      0.000000
      0.000754      0.000012      0.000000
      0.000762      0.000012      0.000000
      0.000770      0.000012      0.000000
      0.000777      0.000012      0.000000
      0.000785      0.000012      0.000000
[...]
POINT_DATA 16384
SCALARS rhoe double
LOOKUP_TABLE default
 0.916623E-013
 0.912204E-013
 0.915499E-013
 0.915315E-013
 0.916483E-013
 0.917190E-013
 0.918031E-013
 0.918834E-013
 0.919643E-013
 0.920449E-013
 0.921251E-013
 0.922052E-013
 0.922849E-013
 0.923643E-013
 0.924434E-013
 0.925222E-013
 0.926007E-013
 0.926787E-013
 0.927564E-013
 0.928336E-013
 0.929104E-013
 0.929866E-013
 0.930624E-013
 0.931375E-013
 0.932121E-013
 0.932860E-013
 0.933592E-013
 0.934316E-013
 0.935032E-013
 0.935740E-013
 0.936439E-013
 0.937128E-013
 0.937807E-013
 0.938475E-013
 0.939132E-013
 0.939776E-013
 0.940407E-013
 0.941025E-013
 0.941628E-013
 0.942216E-013
 0.942789E-013
 0.943345E-013
 0.943883E-013
 0.944403E-013
 0.944905E-013
 0.945387E-013
 0.945848E-013
 0.946289E-013
 0.946708E-013
 0.947104E-013
 0.947477E-013
 0.947827E-013
 0.948152E-013
 0.948452E-013
 0.948727E-013
 0.948976E-013
 0.949198E-013
 0.949394E-013
 0.949562E-013
 0.949703E-013
 0.949816E-013
 0.949900E-013
 0.949957E-013
 0.949985E-013
 0.949985E-013
 0.949957E-013
 0.949900E-013
 0.949816E-013
 0.949703E-013
 0.949562E-013
 0.949394E-013
 0.949198E-013
 0.948976E-013
 0.948727E-013
 0.948452E-013
 0.948152E-013
 0.947827E-013
 0.947477E-013
 0.947104E-013
 0.946708E-013
 0.946289E-013
 0.945848E-013
 0.945387E-013
 0.944905E-013
 0.944403E-013
 0.943883E-013
 0.943345E-013
 0.942789E-013
 0.942217E-013
 0.941628E-013
 0.941025E-013
 0.940407E-013
 0.939776E-013
 0.939132E-013
 0.938476E-013
 0.937808E-013
 0.937129E-013
 0.936439E-013
 0.935741E-013
 0.935033E-013
 0.934316E-013
 0.933592E-013
 0.932860E-013
 0.932121E-013
 0.931375E-013
 0.930624E-013
 0.929867E-013
 0.929104E-013
 0.928336E-013
 0.927564E-013
 0.926787E-013
 0.926007E-013
 0.925223E-013
 0.924435E-013
 0.923643E-013
 0.922849E-013
 0.922052E-013
 0.921252E-013
 0.920449E-013
 0.919644E-013
 0.918834E-013
 0.918031E-013
 0.917190E-013
 0.916483E-013
 0.915315E-013
 0.915499E-013
 0.912204E-013
 0.916623E-013
 0.912204E-013
 0.907620E-013
 0.909421E-013
 0.907784E-013
 0.907666E-013
 0.906986E-013
 0.906487E-013
 0.905939E-013
 0.905406E-013
 0.904870E-013
 0.904338E-013
 0.903807E-013
 0.903278E-013
 0.902751E-013
 0.902226E-013
 0.901703E-013
 0.901183E-013
 0.900665E-013
 0.900149E-013
 0.899637E-013
 0.899127E-013
 0.898621E-013
 0.898119E-013
 0.897620E-013
 0.897125E-013
 0.896634E-013
 0.896148E-013
 0.895667E-013
 0.895191E-013
 0.894721E-013
 0.894257E-013
 0.893799E-013
 0.893348E-013
 0.892904E-013
 0.892468E-013
 0.892040E-013
 0.891620E-013
 0.891209E-013
 0.890808E-013
 0.890417E-013
 0.890036E-013
 0.889667E-013
 0.889309E-013
 0.888962E-013
 0.888629E-013
 0.888308E-013
 0.888001E-013
 0.887708E-013
 0.887429E-013
 0.887165E-013
 0.886917E-013
 0.886684E-013
 0.886467E-013
 0.886268E-013
 0.886085E-013
 0.885919E-013
 0.885771E-013
 0.885641E-013
 0.885529E-013
 0.885435E-013
 0.885360E-013
 0.885303E-013
 0.885265E-013
 0.885246E-013
 0.885246E-013
 0.885265E-013
 0.885303E-013
 0.885360E-013
 0.885435E-013
 0.885529E-013
 0.885641E-013
 0.885771E-013
 0.885919E-013
 0.886085E-013
 0.886268E-013
 0.886467E-013
 0.886684E-013
 0.886917E-013
 0.887165E-013
 0.887429E-013
 0.887708E-013
 0.888001E-013
 0.888308E-013
 0.888629E-013
 0.888963E-013
 0.889309E-013
 0.889667E-013
 0.890037E-013
 0.890417E-013
 0.890808E-013
 0.891210E-013
 0.891620E-013
 0.892040E-013
 0.892468E-013
 0.892904E-013
 0.893348E-013
 0.893799E-013
 0.894257E-013
 0.894721E-013
 0.895192E-013
 0.895667E-013
 0.896148E-013
 0.896634E-013
 0.897125E-013
 0.897620E-013
 0.898119E-013
 0.898621E-013
 0.899128E-013
 0.899637E-013
 0.900149E-013
 0.900665E-013
 0.901183E-013
 0.901703E-013
 0.902226E-013
 0.902751E-013
 0.903278E-013
 0.903807E-013
 0.904338E-013
 0.904871E-013
 0.905406E-013
 0.905939E-013
 0.906487E-013
 0.906986E-013
 0.907666E-013
 0.907784E-013
 0.909421E-013
 0.907620E-013
 0.912204E-013
 0.915499E-013
 0.909421E-013
 0.913185E-013
 0.911882E-013
 0.912772E-013
 0.912852E-013
 0.913189E-013
 0.913453E-013
 0.913735E-013
 0.914012E-013
 0.914288E-013
 0.914563E-013
 0.914838E-013
 0.915111E-013
 0.915383E-013
 0.915654E-013
 0.915923E-013
 0.916192E-013
 0.916458E-013
 0.916724E-013
 0.916988E-013
 0.917250E-013
 0.917510E-013
 0.917769E-013
 0.918025E-013
 0.918279E-013
 0.918531E-013
 0.918780E-013
 0.919027E-013
 0.919270E-013
 0.919511E-013
 0.919748E-013
 0.919982E-013
 0.920212E-013
 0.920438E-013
 0.920660E-013
 0.920877E-013
 0.921090E-013
 0.921298E-013
 0.921501E-013
 0.921698E-013
 0.921890E-013
 0.922075E-013
 0.922255E-013
 0.922428E-013
 0.922594E-013
 0.922753E-013
 0.922905E-013
 0.923050E-013
 0.923187E-013
 0.923315E-013
 0.923436E-013
 0.923548E-013
 0.923652E-013
 0.923747E-013
 0.923833E-013
 0.923910E-013
 0.923977E-013
 0.924035E-013
 0.924084E-013
 0.924123E-013
 0.924152E-013
 0.924172E-013
 0.924182E-013
 0.924182E-013
 0.924172E-013
 0.924152E-013
 0.924123E-013
 0.924084E-013
 0.924035E-013
 0.923977E-013
 0.923910E-013
 0.923833E-013
 0.923747E-013
 0.923652E-013
 0.923548E-013
 0.923436E-013
 0.923315E-013
 0.923187E-013
 0.923050E-013
 0.922905E-013
 0.922753E-013
 0.922594E-013
 0.922428E-013
 0.922255E-013
 0.922075E-013
 0.921890E-013
 0.921698E-013
 0.921501E-013
 0.921298E-013
 0.921090E-013
 0.920877E-013
 0.920660E-013
 0.920438E-013
 0.920212E-013
 0.919982E-013
 0.919748E-013
 0.919511E-013
 0.919270E-013
 0.919027E-013
 0.918780E-013
 0.918531E-013
 0.918279E-013
 0.918025E-013
 0.917769E-013
 0.917510E-013
 0.917250E-013
 0.916988E-013
 0.916724E-013
 0.916458E-013
 0.916191E-013
 0.915923E-013
 0.915653E-013
 0.915383E-013
 0.915111E-013
 0.914837E-013
 0.914563E-013
 0.914288E-013
 0.914011E-013
 0.913735E-013
 0.913453E-013
 0.913189E-013
 0.912852E-013
 0.912772E-013
 0.911882E-013
 0.913185E-013
 0.909421E-013
 0.915499E-013
 0.915315E-013
 0.907784E-013
 0.911882E-013
 0.909803E-013
 0.910447E-013
 0.910076E-013
 0.910031E-013
 0.909895E-013
 0.909782E-013
 0.909664E-013
 0.909548E-013
 0.909432E-013
 0.909316E-013
 0.909201E-013
 0.909087E-013
 0.908972E-013
 0.908859E-013
 0.908746E-013
 0.908633E-013
 0.908522E-013
 0.908410E-013
 0.908300E-013
 0.908190E-013
 0.908081E-013
 0.907973E-013
 0.907866E-013
 0.907760E-013
 0.907655E-013
 0.907551E-013
 0.907449E-013
 0.907347E-013
 0.907247E-013
 0.907149E-013
 0.907052E-013
 0.906957E-013
 0.906863E-013
 0.906772E-013
 0.906682E-013
 0.906594E-013
 0.906509E-013
 0.906426E-013
 0.906345E-013
 0.906267E-013
 0.906191E-013
 0.906118E-013
 0.906048E-013
 0.905981E-013
 0.905917E-013
 0.905856E-013
 0.905798E-013
 0.905744E-013
 0.905693E-013
 0.905646E-013
 0.905602E-013
 0.905562E-013
 0.905526E-013
 0.905494E-013
 0.905465E-013
 0.905441E-013
 0.905420E-013
 0.905404E-013
 0.905391E-013
 0.905383E-013
 0.905379E-013
 0.905379E-013
 0.905383E-013
 0.905391E-013
 0.905404E-013
 0.905420E-013
 0.905441E-013
 0.905465E-013
 0.905494E-013
 0.905526E-013
 0.905562E-013
 0.905602E-013
 0.905646E-013
 0.905693E-013
 0.905744E-013
 0.905798E-013
 0.905856E-013
 0.905917E-013
 0.905981E-013
 0.906048E-013
 0.906118E-013
 0.906191E-013
 0.906267E-013
 0.906345E-013
 0.906426E-013
 0.906509E-013
 0.906594E-013
 0.906682E-013
 0.906772E-013
 0.906863E-013
 0.906957E-013
 0.907052E-013
 0.907149E-013
 0.907247E-013
 0.907347E-013
 0.907449E-013
 0.907551E-013
 0.907655E-013
 0.907760E-013
 0.907866E-013
 0.907973E-013
 0.908081E-013
 0.908190E-013
 0.908300E-013
 0.908410E-013
 0.908522E-013
 0.908633E-013
 0.908746E-013
 0.908859E-013
 0.908973E-013
 0.909087E-013
 0.909201E-013
 0.909316E-013
 0.909432E-013
 0.909548E-013
 0.909664E-013
 0.909782E-013
 0.909895E-013
 0.910031E-013
 0.910076E-013
 0.910447E-013
 0.909803E-013
 0.911882E-013
 0.907784E-013
 0.915315E-013
 0.916483E-013
 0.907666E-013
 0.912772E-013
 0.910447E-013
 0.911413E-013
 0.911147E-013
 0.911277E-013
 0.911296E-013
 0.911342E-013
 0.911383E-013
 0.911424E-013
 0.911465E-013
 0.911505E-013
 0.911546E-013
 0.911587E-013
 0.911627E-013
 0.911667E-013
 0.911707E-013
 0.911746E-013
 0.911786E-013
 0.911825E-013
 0.911864E-013
 0.911903E-013
 0.911941E-013
 0.911979E-013
 0.912017E-013
 0.912054E-013
 0.912091E-013
 0.912128E-013
 0.912164E-013
 0.912200E-013
 0.912235E-013
 0.912270E-013
 0.912304E-013
 0.912338E-013
 0.912371E-013
 0.912403E-013
 0.912435E-013
 0.912466E-013
 0.912496E-013
 0.912525E-013
 0.912554E-013
 0.912581E-013
 0.912608E-013
 0.912634E-013
 0.912658E-013
 0.912682E-013
 0.912705E-013
 0.912726E-013
 0.912747E-013
 0.912766E-013
 0.912784E-013
 0.912800E-013
 0.912816E-013
 0.912830E-013
 0.912843E-013
 0.912854E-013
 0.912864E-013
 0.912873E-013
 0.912880E-013
 0.912886E-013
 0.912890E-013
 0.912893E-013
 0.912895E-013
 0.912895E-013
 0.912893E-013
 0.912890E-013
 0.912886E-013
 0.912880E-013
 0.912873E-013
 0.912864E-013
 0.912854E-013
 0.912843E-013
 0.912830E-013
 0.912816E-013
 0.912800E-013
 0.912784E-013
 0.912766E-013
 0.912747E-013
 0.912726E-013
 0.912705E-013
 0.912682E-013
 0.912658E-013
 0.912634E-013
 0.912608E-013
 0.912581E-013
 0.912554E-013
 0.912525E-013
 0.912496E-013
 0.912466E-013
 0.912435E-013
 0.912403E-013
 0.912371E-013
 0.912338E-013
 0.912304E-013
 0.912270E-013
 0.912235E-013
 0.912200E-013
 0.912164E-013
 0.912128E-013
 0.912091E-013
 0.912054E-013
 0.912017E-013
 0.911979E-013
 0.911941E-013
 0.911903E-013
 0.911864E-013
 0.911825E-013
 0.911786E-013
 0.911746E-013
 0.911707E-013
 0.911667E-013
 0.911627E-013
 0.911587E-013
 0.911546E-013
 0.911505E-013
 0.911465E-013
 0.911424E-013
 0.911383E-013
 0.911342E-013
 0.911296E-013
 0.911277E-013
 0.911147E-013
 0.911413E-013
 0.910447E-013
 0.912772E-013
 0.907666E-013
 0.916483E-013
 0.917190E-013
 0.906986E-013
 0.912852E-013
 0.910076E-013
 0.911147E-013
 0.910772E-013
 0.910864E-013
 0.910825E-013
 0.910819E-013
 0.910805E-013
 0.910793E-013
 0.910780E-013
 0.910768E-013
 0.910756E-013
 0.910744E-013
 0.910731E-013
 0.910719E-013
 0.910707E-013
 0.910695E-013
 0.910683E-013
 0.910671E-013
 0.910660E-013
 0.910648E-013
 0.910636E-013
 0.910625E-013
 0.910614E-013
 0.910602E-013
 0.910591E-013
 0.910580E-013
 0.910569E-013
 0.910558E-013
 0.910548E-013
 0.910537E-013
 0.910527E-013
 0.910517E-013
 0.910507E-013
 0.910497E-013
 0.910487E-013
 0.910478E-013
 0.910469E-013
 0.910460E-013
 0.910452E-013
 0.910443E-013
 0.910435E-013
 0.910427E-013
 0.910420E-013
 0.910413E-013
 0.910406E-013
 0.910400E-013
 0.910394E-013
 0.910388E-013
 0.910382E-013
 0.910377E-013
 0.910373E-013
 0.910368E-013
 0.910365E-013
 0.910361E-013
 0.910358E-013
 0.910356E-013
 0.910353E-013
 0.910352E-013
 0.910350E-013
 0.910349E-013
 0.910349E-013
 0.910349E-013
 0.910349E-013
 0.910350E-013
 0.910352E-013
 0.910353E-013
 0.910356E-013
 0.910358E-013
 0.910361E-013
 0.910365E-013
 0.910368E-013
 0.910373E-013
 0.910377E-013
 0.910382E-013
 0.910388E-013
 0.910394E-013
 0.910400E-013
 0.910406E-013
 0.910413E-013
 0.910420E-013
 0.910428E-013
 0.910435E-013
 0.910443E-013
 0.910452E-013
 0.910460E-013
 0.910469E-013
 0.910478E-013
 0.910487E-013
 0.910497E-013
 0.910507E-013
 0.910517E-013
 0.910527E-013
 0.910537E-013
 0.910548E-013
 0.910558E-013
 0.910569E-013
 0.910580E-013
 0.910591E-013
 0.910602E-013
 0.910614E-013
 0.910625E-013
 0.910636E-013
 0.910648E-013
 0.910660E-013
 0.910672E-013
 0.910683E-013
 0.910695E-013
 0.910707E-013
 0.910719E-013
 0.910731E-013
 0.910744E-013
 0.910756E-013
 0.910768E-013
 0.910780E-013
 0.910793E-013
 0.910805E-013
 0.910819E-013
 0.910825E-013
 0.910864E-013
 0.910772E-013
 0.911147E-013
 0.910076E-013
 0.912852E-013
 0.906986E-013
 0.917190E-013
 0.918031E-013
 0.906487E-013
 0.913189E-013
 0.910031E-013
 0.911277E-013
 0.910864E-013
 0.910988E-013
 0.910961E-013
 0.910971E-013
 0.910973E-013
 0.910977E-013
 0.910980E-013
 0.910983E-013
 0.910986E-013
 0.910990E-013
 0.910993E-013
 0.910996E-013
 0.910999E-013
 0.911002E-013
 0.911005E-013
 0.911009E-013
 0.911012E-013
 0.911015E-013
 0.911018E-013
 0.911021E-013
 0.911024E-013
 0.911027E-013
 0.911030E-013
 0.911033E-013
 0.911036E-013
 0.911039E-013
 0.911042E-013
 0.911044E-013
 0.911047E-013
 0.911050E-013
 0.911052E-013
 0.911055E-013
 0.911058E-013
 0.911060E-013
 0.911063E-013
 0.911065E-013
 0.911067E-013
 0.911069E-013
 0.911072E-013
 0.911074E-013
 0.911076E-013
 0.911078E-013
 0.911080E-013
 0.911081E-013
 0.911083E-013
 0.911085E-013
 0.911086E-013
 0.911087E-013
 0.911089E-013
 0.911090E-013
 0.911091E-013
 0.911092E-013
 0.911093E-013
 0.911093E-013
 0.911094E-013
 0.911094E-013
 0.911095E-013
 0.911095E-013
 0.911095E-013
 0.911095E-013
 0.911095E-013
 0.911095E-013
 0.911094E-013
 0.911094E-013
 0.911093E-013
 0.911093E-013
 0.911092E-013
 0.911091E-013
 0.911090E-013
 0.911089E-013
 0.911087E-013
 0.911086E-013
 0.911085E-013
 0.911083E-013
 0.911081E-013
 0.911080E-013
 0.911078E-013
 0.911076E-013
 0.911074E-013
 0.911072E-013
 0.911069E-013
 0.911067E-013
 0.911065E-013
 0.911063E-013
 0.911060E-013
 0.911058E-013
 0.911055E-013
 0.911052E-013
 0.911050E-013
 0.911047E-013
 0.911044E-013
 0.911042E-013
 0.911039E-013
 0.911036E-013
 0.911033E-013
 0.911030E-013
 0.911027E-013
 0.911024E-013
 0.911021E-013
 0.911018E-013
 0.911015E-013
 0.911012E-013
 0.911009E-013
 0.911005E-013
 0.911002E-013
 0.910999E-013
 0.910996E-013
 0.910993E-013
 0.910990E-013
 0.910986E-013
 0.910983E-013
 0.910980E-013
 0.910977E-013
 0.910973E-013
 0.910971E-013
 0.910961E-013
 0.910988E-013
 0.910864E-013
 0.911277E-013
 0.910031E-013
 0.913189E-013
 0.906487E-013
 0.918031E-013
 0.918834E-013
 0.905939E-013
 0.913453E-013
 0.909895E-013
 0.911296E-013
 0.910825E-013
 0.910961E-013
 0.910925E-013
 0.910932E-013
 0.910930E-013
 0.910930E-013
 0.910929E-013
 0.910928E-013
 0.910927E-013
 0.910926E-013
 0.910926E-013
 0.910925E-013
 0.910924E-013
 0.910923E-013
 0.910923E-013
 0.910922E-013
 0.910921E-013
 0.910921E-013
 0.910920E-013
 0.910919E-013
 0.910919E-013
 0.910918E-013
 0.910917E-013
 0.910917E-013
 0.910916E-013
 0.910915E-013
 0.910915E-013
 0.910914E-013
 0.910913E-013
 0.910913E-013
 0.910912E-013
 0.910912E-013
 0.910911E-013
 0.910911E-013
 0.910910E-013
 0.910910E-013
 0.910909E-013
 0.910909E-013
 0.910908E-013
 0.910908E-013
 0.910907E-013
 0.910907E-013
 0.910907E-013
 0.910906E-013
 0.910906E-013
 0.910906E-013
 0.910905E-013
 0.910905E-013
 0.910905E-013
 0.910904E-013
 0.910904E-013
 0.910904E-013
 0.910904E-013
 0.910904E-013
 0.910904E-013
 0.910904E-013
 0.910904E-013
 0.910903E-013
 0.910903E-013
 0.910903E-013
 0.910903E-013
 0.910904E-013
 0.910904E-013
 0.910904E-013
 0.910904E-013
 0.910904E-013
 0.910904E-013
 0.910904E-013
 0.910904E-013
 0.910905E-013
 0.910905E-013
 0.910905E-013
 0.910906E-013
 0.910906E-013
 0.910906E-013
 0.910907E-013
 0.910907E-013
 0.910907E-013
 0.910908E-013
 0.910908E-013
 0.910909E-013
 0.910909E-013
 0.910910E-013
 0.910910E-013
 0.910911E-013
 0.910911E-013
 0.910912E-013
 0.910912E-013
 0.910913E-013
 0.910913E-013
 0.910914E-013
 0.910915E-013
 0.910915E-013
 0.910916E-013
 0.910917E-013
 0.910917E-013
 0.910918E-013
 0.910919E-013
 0.910919E-013
 0.910920E-013
 0.910921E-013
 0.910921E-013
 0.910922E-013
 0.910923E-013
 0.910923E-013
 0.910924E-013
 0.910925E-013
 0.910926E-013
 0.910926E-013
 0.910927E-013
 0.910928E-013
 0.910929E-013
 0.910930E-013
 0.910930E-013
 0.910932E-013
 0.910925E-013
 0.910961E-013
 0.910825E-013
 0.911296E-013
 0.909895E-013
 0.913453E-013
 0.905939E-013
 0.918834E-013
 0.919643E-013
 0.905406E-013
 0.913735E-013
 0.909782E-013
 0.911342E-013
 0.910819E-013
 0.910971E-013
 0.910932E-013
 0.910941E-013
 0.910940E-013
 0.910940E-013
 0.910940E-013
 0.910941E-013
 0.910941E-013
 0.910941E-013
 0.910941E-013
 0.910941E-013
 0.910941E-013
 0.910942E-013
 0.910942E-013
 0.910942E-013
 0.910942E-013
 0.910942E-013
 0.910942E-013
 0.910943E-013
 0.910943E-013
 0.910943E-013
 0.910943E-013
 0.910943E-013
 0.910943E-013
 0.910944E-013
 0.910944E-013
 0.910944E-013
 0.910944E-013
 0.910944E-013
 0.910944E-013
 0.910945E-013
 0.910945E-013
 0.910945E-013
 0.910945E-013
 0.910945E-013
 0.910945E-013
 0.910946E-013
 0.910946E-013
 0.910946E-013
 0.910946E-013
 0.910946E-013
 0.910946E-013
 0.910946E-013
 0.910947E-013
 0.910947E-013
 0.910947E-013
 0.910947E-013
 0.910947E-013
 0.910947E-013
 0.910947E-013
 0.910947E-013
 0.910947E-013
 0.910948E-013
 0.910948E-013
 0.910948E-013
 0.910948E-013
 0.910948E-013
 0.910948E-013
 0.910948E-013
 0.910948E-013
 0.910948E-013
 0.910948E-013
 0.910948E-013
 0.910948E-013
 0.910947E-013
 0.910947E-013
 0.910947E-013
 0.910947E-013
 0.910947E-013
 0.910947E-013
 0.910947E-013
 0.910947E-013
 0.910947E-013
 0.910946E-013
 0.910946E-013
 0.910946E-013
 0.910946E-013
 0.910946E-013
 0.910946E-013
 0.910946E-013
 0.910945E-013
 0.910945E-013
 0.910945E-013
 0.910945E-013
 0.910945E-013
 0.910945E-013
 0.910944E-013
 0.910944E-013
 0.910944E-013
 0.910944E-013
 0.910944E-013
 0.910944E-013
 0.910943E-013
 0.910943E-013
 0.910943E-013
 0.910943E-013
 0.910943E-013
 0.910943E-013
 0.910942E-013
 0.910942E-013
 0.910942E-013
 0.910942E-013
 0.910942E-013
 0.910942E-013
 0.910941E-013
 0.910941E-013
 0.910941E-013
 0.910941E-013
 0.910941E-013
 0.910941E-013
 0.910940E-013
 0.910940E-013
 0.910940E-013
 0.910941E-013
 0.910932E-013
 0.910971E-013
 0.910819E-013
 0.911342E-013
 0.909782E-013
 0.913735E-013
 0.905406E-013
 0.919644E-013
 0.920449E-013
 0.904870E-013
 0.914012E-013
 0.909664E-013
 0.911383E-013
 0.910805E-013
 0.910973E-013
 0.910930E-013
 0.910940E-013
 0.910938E-013
 0.910938E-013
 0.910938E-013
 0.910938E-013
 0.910938E-013
 0.910938E-013
 0.910938E-013
 0.910938E-013
 0.910938E-013
 0.910938E-013
 0.910938E-013
 0.910938E-013
 0.910938E-013
 0.910938E-013
 0.910938E-013
 0.910938E-013
 0.910938E-013
 0.910938E-013
 0.910938E-013
 0.910938E-013
 0.910938E-013
 0.910938E-013
 0.910938E-013
 0.910938E-013
 0.910938E-013
 0.910938E-013
 0.910938E-013
 0.910938E-013
 0.910938E-013
 0.910938E-013
 0.910938E-013
 0.910938E-013
 0.910938E-013
 0.910938E-013
 0.910938E-013
 0.910938E-013
 0.910938E-013
 0.910938E-013
 0.910938E-013
 0.910938E-013
 0.910938E-013
 0.910939E-013
 0.910939E-013
 0.910939E-013
 0.910939E-013
 0.910939E-013
 0.910939E-013
 0.910939E-013
 0.910939E-013
 0.910939E-013
 0.910939E-013
 0.910939E-013
 0.910939E-013
 0.910939E-013
 0.910939E-013
 0.910939E-013
 0.910939E-013
 0.910939E-013
 0.910939E-013
 0.910939E-013
 0.910939E-013
 0.910939E-013
 0.910939E-013
 0.910939E-013
 0.910939E-013
 0.910939E-013
 0.910939E-013
 0.910939E-013
 0.910939E-013
 0.910938E-013
 0.910938E-013
 0.910938E-013
 0.910938E-013
 0.910938E-013
 0.910938E-013
 0.910938E-013
 0.910938E-013
 0.910938E-013
 0.910938E-013
 0.910938E-013
 0.910938E-013
 0.910938E-013
 0.910938E-013
 0.910938E-013
 0.910938E-013
 0.910938E-013
 0.910938E-013
 0.910938E-013
 0.910938E-013
 0.910938E-013
 0.910938E-013
 0.910938E-013
 0.910938E-013
 0.910938E-013
 0.910938E-013
 0.910938E-013
 0.910938E-013
 0.910938E-013
 0.910938E-013
 0.910938E-013
 0.910938E-013
 0.910938E-013
 0.910938E-013
 0.910938E-013
 0.910938E-013
 0.910938E-013
 0.910938E-013
 0.910938E-013
 0.910938E-013
 0.910938E-013
 0.910940E-013
 0.910930E-013
 0.910973E-013
 0.910805E-013
 0.911383E-013
 0.909664E-013
 0.914011E-013
 0.904871E-013
 0.920449E-013
 0.921251E-013
 0.904338E-013
 0.914288E-013
 0.909548E-013
 0.911424E-013
 0.910793E-013
 0.910977E-013
 0.910930E-013
 0.910940E-013
 0.910938E-013
 0.910938E-013
 0.910938E-013
 0.910938E-013
 0.910938E-013
 0.910938E-013
 0.910938E-013
 0.910939E-013
 0.910939E-013
 0.910939E-013
 0.910939E-013
 0.910939E-013
 0.910939E-013
 0.910939E-013
 0.910939E-013
 0.910939E-013
 0.910939E-013
 0.910939E-013
 0.910939E-013
 0.910939E-013
 0.910939E-013
 0.910939E-013
 0.910939E-013
 0.910939E-013
 0.910939E-013
 0.910939E-013
 0.910939E-013
 0.910939E-013
 0.910939E-013
 0.910939E-013
 0.910939E-013
 0.910940E-013
 0.910940E-013
 0.910940E-013
 0.910940E-013
 0.910940E-013
 0.910940E-013
 0.910940E-013
 0.910940E-013
 0.910940E-013