# vtk DataFile Version 3.0
Solution data
ASCII
DATASET STRUCTURED_GRID
DIMENSIONS 128 128 1
POINTS 16384  double
      0.000004      0.000004      0.000000
      0.000012      0.000004      0.000000
      0.000020      0.000004      0.000000
      0.000027      0.000004      0.000000
      0.000035      0.000004      0.000000
      0.000043      0.000004      0.000000
      0.000051      0.000004      0.000000
      0.000059      0.000004      0.000000
      0.000066      0.000004      0.000000
      0.000074      0.000004      0.000000
      0.000082      0.000004      0.000000
      0.000090      0.000004      0.000000
      0.000098      0.000004      0.000000
      0.000105      0.000004      0.000000
      0.000113      0.000004      0.000000
      0.000121      0.000004      0.000000
      0.000129      0.000004      0.000000
      0.000137      0.000004      0.000000
      0.000145      0.000004      0.000000
      0.000152      0.000004      0.000000
      0.000160      0.000004      0.000000
      0.000168      0.000004      0.000000
      0.000176      0.000004      0.000000
      0.000184      0.000004      0.000000
      0.000191      0.000004      0.000000
      0.000199      0.000004      0.000000
      0.000207      0.000004      0.000000
      0.000215      0.000004      0.000000
      0.000223      0.000004      0.000000
      0.000230      0.000004      0.000000
      0.000238      0.000004      0.000000
      0.000246      0.000004      0.000000
      0.000254      0.000004      0.000000
      0.000262      0.000004      0.000000
      0.000270      0.000004      0.000000
      0.000277      0.000004      0.000000
      0.000285      0.000004      0.000000
      0.000293      0.000004      0.000000
      0.000301      0.000004      0.000000
      0.000309      0.000004      0.000000
      0.000316      0.000004      0.000000
      0.000324      0.000004      0.000000
      0.000332      0.000004      0.000000
      0.000340      0.000004      0.000000
      0.000348      0.000004      0.000000
      0.000355      0.000004      0.000000
      0.000363      0.000004      0.000000
      0.000371      0.000004      0.000000
      0.000379      0.000004      0.000000
      0.000387      0.000004      0.000000
      0.000395      0.000004      0.000000
      0.000402      0.000004      0.000000
      0.000410      0.000004      0.000000
      0.000418      0.000004      0.000000
      0.000426      0.000004      0.000000
      0.000434      0.000004      0.000000
      0.000441      0.000004      0.000000
      0.000449      0.000004      0.000000
      0.000457      0.000004      0.000000
      0.000465      0.000004      0.000000
      0.000473      0.000004      0.000000
      0.000480      0.000004      0.000000
      0.000488      0.000004      0.000000
      0.000496      0.000004      0.000000
      0.000504      0.000004      0.000000
      0.000512      0.000004      0.000000
      0.000520      0.000004      0.000000
      0.000527      0.000004      0.000000
      0.000535      0.000004      0.000000
      0.000543      0.000004      0.000000
      0.000551      0.000004      0.000000
      0.000559      0.000004      0.000000
      0.000566      0.000004      0.000000
      0.000574      0.000004      0.000000
      0.000582      0.000004      0.000000
      0.000590      0.000004      0.000000
      0.000598      0.000004      0.000000
      0.000605      0.000004      0.000000
      0.000613      0.000004      0.000000
      0.000621      0.000004      0.000000
      0.000629      0.000004      0.000000
      0.000637      0.000004      0.000000
      0.000645      0.000004      0.000000
      0.000652      0.000004      0.000000
      0.000660      0.000004      0.000000
      0.000668      0.000004      0.000000
      0.000676      0.000004      0.000000
      0.000684      0.000004      0.000000
      0.000691      0.000004      0.000000
      0.000699      0.000004      0.000000
      0.000707      0.000004      0.000000
      0.000715      0.000004      0.000000
      0.000723      0.000004      0.000000
      0.000730      0.000004      0.000000
      0.000738      0.000004      0.000000
      0.000746      0.000004      0.000000
      0.000754      0.000004      0.000000
      0.000762      0.000004      0.000000
      0.000770      0.000004      0.000000
      0.000777      0.000004      0.000000
      0.000785      0.000004      0.000000
      0.000793      0.000004      0.000000
      0.000801      0.000004      0.000000
      0.000809      0.000004      0.000000
      0.000816      0.000004      0.000000
      0.000824      0.000004      0.000000
      0.000832      0.000004      0.000000
      0.000840      0.000004      0.000000
      0.000848      0.000004      0.000000
      0.000855      0.000004      0.000000
      0.000863      0.000004      0.000000
      0.000871      0.000004      0.000000
      0.000879      0.000004      0.000000
      0.000887      0.000004      0.000000
      0.000895      0.000004      0.000000
      0.000902      0.000004      0.000000
      0.000910      0.000004      0.000000
      0.000918      0.000004      0.000000
      0.000926      0.000004      0.000000
      0.000934      0.000004      0.000000
      0.000941      0.000004      0.000000
      0.000949      0.000004      0.000000
      0.000957      0.000004      0.000000
      0.000965      0.000004      0.000000
      0.000973      0.000004      0.000000
      0.000980      0.000004      0.000000
      0.000988      0.000004      0.000000
      0.000996      0.000004      0.000000
      0.000004      0.000012      0.000000
      0.000012      0.000012      0.000000
      0.000020      0.000012      0.000000
      0.000027      0.000012      0.000000
      0.000035      0.000012      0.000000
      0.000043      0.000012      0.000000
      0.000051      0.000012      0.000000
      0.000059      0.000012      0.000000
      0.000066      0.000012      0.000000
      0.000074      0.000012      0.000000
      0.000082      0.000012      0.000000
      0.000090      0.000012      0.000000
      0.000098      0.000012      0.000000
      0.000105      0.000012      0.000000
      0.000113      0.000012      0.000000
      0.000121      0.000012      0.000000
      0.000129      0.000012      0.000000
      0.000137      0.000012      0.000000
      0.000145      0.000012      0.000000
      0.000152      0.000012      0.000000
      0.000160      0.000012      0.000000
      0.000168      0.000012      0.000000
      0.000176      0.000012      0.000000
      0.000184      0.000012      0.000000
      0.000191      0.000012      0.000000
      0.000199      0.000012      0.000000
      0.000207      0.000012      0.000000
      0.000215      0.000012      0.000000
      0.000223      0.000012      0.000000
      0.000230      0.000012      0.000000
      0.000238      0.000012      0.000000
      0.000246      0.000012      0.000000
      0.000254      0.000012      0.000000
      0.000262      0.000012      0.000000
      0.000270      0.000012      0.000000
      0.000277      0.000012      0.000000
      0.000285      0.000012      0.000000
      0.000293      0.000012      0.000000
      0.000301      0.000012      0.000000
      0.000309      0.000012      0.000000
      0.000316      0.000012      0.000000
      0.000324      0.000012      0.000000
      0.000332      0.000012      0.000000
      0.000340      0.000012      0.000000
      0.000348      0.000012      0.000000
      0.000355      0.000012      0.000000
      0.000363      0.000012      0.000000
      0.000371      0.000012      0.000000
      0.000379      0.000012      0.000000
      0.000387      0.000012      0.000000
      0.000395      0.000012      0.000000
      0.000402      0.000012      0.000000
      0.000410      0.000012      0.000000
      0.000418      0.000012      0.000000
      0.000426      0.000012      0.000000
      0.000434      0.000012      0.000000
      0.000441      0.000012      0.000000
      0.000449      0.000012      0.000000
      0.000457      0.000012      0.000000
      0.000465      0.000012      0.000000
      0.000473      0.000012      0.000000
      0.000480      0.000012      0.000000
      0.000488      0.000012      0.000000
      0.000496      0.000012      0.000000
      0.000504      0.000012      0.000000
      0.000512      0.000012      0.000000
      0.000520      0.000012      0.000000
      0.000527      0.000012      0.000000
      0.000535      0.000012      0.000000
      0.000543      0.000012      0.000000
      0.000551      0.000012      0.000000
      0.000559      0.000012      0.000000
      0.000566      0.000012      0.000000
      0.000574      0.000012      0.000000
      0.000582      0.000012      0.000000
      0.000590      0.000012      0.000000
      0.000598      0.000012      0.000000
      0.000605      0.000012      0.000000
      0.000613      0.000012      0.000000
      0.000621      0.000012      0.000000
      0.000629      0.000012      0.000000
      0.000637      0.000012      0.000000
      0.000645      0.000012      0.000000
      0.000652      0.000012      0.000000
      0.000660      0.000012      0.000000
      0.000668      0.000012      0.000000
      0.000676      0.000012      0.000000
      0.000684      0.000012      0.000000
      0.000691      0.000012      0.000000
      0.000699      0.000012      0.000000
      0.000707      0.000012      0.000000
      0.000715      0.000012      0.000000
      0.000723      0.000012      0.000000
      0.000730      0.000012      0.000000
      0.000738      0.000012      0.000000
      0.000746      0.000012      0.000000
      0.000754      0.000012      0.000000
      0.000762      0.000012      0.000000
      0.000770      0.000012      0.000000
      0.000777      0.000012      0.000000
      0.000785      0.000012      0.000000
[...]
POINT_DATA 16384
SCALARS rhoe double
LOOKUP_TABLE default
 0.916705E-013
 0.912108E-013
 0.915528E-013
 0.915231E-013
 0.916427E-013
 0.917095E-013
 0.917925E-013
 0.918707E-013
 0.919498E-013
 0.920284E-013
 0.921068E-013
 0.921850E-013
 0.922628E-013
 0.923404E-013
 0.924177E-013
 0.924946E-013
 0.925712E-013
 0.926474E-013
 0.927232E-013
 0.927986E-013
 0.928736E-013
 0.929480E-013
 0.930219E-013
 0.930953E-013
 0.931680E-013
 0.932401E-013
 0.933115E-013
 0.933822E-013
 0.934521E-013
 0.935212E-013
 0.935894E-013
 0.936566E-013
 0.937228E-013
 0.937880E-013
 0.938520E-013
 0.939148E-013
 0.939764E-013
 0.940366E-013
 0.940954E-013
 0.941528E-013
 0.942086E-013
 0.942628E-013
 0.943153E-013
 0.943660E-013
 0.944149E-013
 0.944618E-013
 0.945068E-013
 0.945498E-013
 0.945906E-013
 0.946292E-013
 0.946656E-013
 0.946996E-013
 0.947313E-013
 0.947606E-013
 0.947874E-013
 0.948116E-013
 0.948333E-013
 0.948523E-013
 0.948687E-013
 0.948824E-013
 0.948934E-013
 0.949017E-013
 0.949072E-013
 0.949100E-013
 0.949100E-013
 0.949072E-013
 0.949017E-013
 0.948934E-013
 0.948824E-013
 0.948687E-013
 0.948523E-013
 0.948333E-013
 0.948116E-013
 0.947874E-013
 0.947606E-013
 0.947313E-013
 0.946997E-013
 0.946656E-013
 0.946292E-013
 0.945906E-013
 0.945498E-013
 0.945068E-013
 0.944619E-013
 0.944149E-013
 0.943660E-013
 0.943153E-013
 0.942628E-013
 0.942086E-013
 0.941528E-013
 0.940955E-013
 0.940366E-013
 0.939764E-013
 0.939148E-013
 0.938520E-013
 0.937880E-013
 0.937228E-013
 0.936566E-013
 0.935894E-013
 0.935212E-013
 0.934521E-013
 0.933822E-013
 0.933115E-013
 0.932401E-013
 0.931680E-013
 0.930953E-013
 0.930219E-013
 0.929480E-013
 0.928736E-013
 0.927987E-013
 0.927233E-013
 0.926474E-013
 0.925712E-013
 0.924946E-013
 0.924177E-013
 0.923404E-013
 0.922628E-013
 0.921850E-013
 0.921068E-013
 0.920284E-013
 0.919498E-013
 0.918707E-013
 0.917925E-013
 0.917095E-013
 0.916427E-013
 0.915231E-013
 0.915528E-013
 0.912108E-013
 0.916705E-013
 0.912108E-013
 0.907574E-013
 0.909420E-013
 0.907718E-013
 0.907643E-013
 0.906940E-013
 0.906449E-013
 0.905897E-013
 0.905363E-013
 0.904827E-013
 0.904293E-013
 0.903761E-013
 0.903231E-013
 0.902703E-013
 0.902178E-013
 0.901654E-013
 0.901133E-013
 0.900614E-013
 0.900098E-013
 0.899585E-013
 0.899074E-013
 0.898568E-013
 0.898065E-013
 0.897565E-013
 0.897070E-013
 0.896579E-013
 0.896092E-013
 0.895611E-013
 0.895135E-013
 0.894664E-013
 0.894200E-013
 0.893741E-013
 0.893290E-013
 0.892846E-013
 0.892410E-013
 0.891981E-013
 0.891561E-013
 0.891151E-013
 0.890749E-013
 0.890358E-013
 0.889978E-013
 0.889608E-013
 0.889250E-013
 0.888904E-013
 0.888570E-013
 0.888249E-013
 0.887942E-013
 0.887649E-013
 0.887370E-013
 0.887107E-013
 0.886858E-013
 0.886626E-013
 0.886409E-013
 0.886209E-013
 0.886026E-013
 0.885861E-013
 0.885713E-013
 0.885583E-013
 0.885471E-013
 0.885377E-013
 0.885302E-013
 0.885245E-013
 0.885208E-013
 0.885189E-013
 0.885189E-013
 0.885208E-013
 0.885245E-013
 0.885302E-013
 0.885377E-013
 0.885471E-013
 0.885583E-013
 0.885713E-013
 0.885861E-013
 0.886027E-013
 0.886209E-013
 0.886409E-013
 0.886626E-013
 0.886858E-013
 0.887107E-013
 0.887370E-013
 0.887649E-013
 0.887942E-013
 0.888249E-013
 0.888570E-013
 0.888904E-013
 0.889250E-013
 0.889608E-013
 0.889978E-013
 0.890358E-013
 0.890750E-013
 0.891151E-013
 0.891561E-013
 0.891981E-013
 0.892410E-013
 0.892846E-013
 0.893290E-013
 0.893741E-013
 0.894200E-013
 0.894664E-013
 0.895135E-013
 0.895611E-013
 0.896092E-013
 0.896579E-013
 0.897070E-013
 0.897565E-013
 0.898065E-013
 0.898568E-013
 0.899075E-013
 0.899585E-013
 0.900098E-013
 0.900614E-013
 0.901133E-013
 0.901654E-013
 0.902178E-013
 0.902703E-013
 0.903231E-013
 0.903761E-013
 0.904293E-013
 0.904827E-013
 0.905363E-013
 0.905897E-013
 0.906449E-013
 0.906940E-013
 0.907643E-013
 0.907718E-013
 0.909420E-013
 0.907574E-013
 0.912108E-013
 0.915528E-013
 0.909420E-013
 0.913302E-013
 0.911906E-013
 0.912871E-013
 0.912931E-013
 0.913291E-013
 0.913562E-013
 0.913855E-013
 0.914142E-013
 0.914429E-013
 0.914714E-013
 0.914999E-013
 0.915282E-013
 0.915564E-013
 0.915845E-013
 0.916125E-013
 0.916403E-013
 0.916680E-013
 0.916956E-013
 0.917230E-013
 0.917501E-013
 0.917772E-013
 0.918040E-013
 0.918306E-013
 0.918569E-013
 0.918830E-013
 0.919089E-013
 0.919344E-013
 0.919597E-013
 0.919846E-013
 0.920092E-013
 0.920335E-013
 0.920573E-013
 0.920808E-013
 0.921038E-013
 0.921263E-013
 0.921484E-013
 0.921699E-013
 0.921909E-013
 0.922114E-013
 0.922312E-013
 0.922505E-013
 0.922691E-013
 0.922870E-013
 0.923042E-013
 0.923207E-013
 0.923365E-013
 0.923515E-013
 0.923656E-013
 0.923790E-013
 0.923915E-013
 0.924031E-013
 0.924139E-013
 0.924237E-013
 0.924326E-013
 0.924405E-013
 0.924475E-013
 0.924536E-013
 0.924586E-013
 0.924626E-013
 0.924657E-013
 0.924677E-013
 0.924687E-013
 0.924687E-013
 0.924677E-013
 0.924657E-013
 0.924626E-013
 0.924586E-013
 0.924536E-013
 0.924475E-013
 0.924405E-013
 0.924326E-013
 0.924237E-013
 0.924138E-013
 0.924031E-013
 0.923915E-013
 0.923790E-013
 0.923656E-013
 0.923514E-013
 0.923365E-013
 0.923207E-013
 0.923042E-013
 0.922870E-013
 0.922691E-013
 0.922505E-013
 0.922312E-013
 0.922114E-013
 0.921909E-013
 0.921699E-013
 0.921483E-013
 0.921263E-013
 0.921037E-013
 0.920807E-013
 0.920573E-013
 0.920335E-013
 0.920092E-013
 0.919846E-013
 0.919597E-013
 0.919344E-013
 0.919089E-013
 0.918830E-013
 0.918569E-013
 0.918305E-013
 0.918039E-013
 0.917771E-013
 0.917501E-013
 0.917229E-013
 0.916956E-013
 0.916680E-013
 0.916403E-013
 0.916125E-013
 0.915845E-013
 0.915564E-013
 0.915282E-013
 0.914999E-013
 0.914714E-013
 0.914428E-013
 0.914141E-013
 0.913855E-013
 0.913562E-013
 0.913291E-013
 0.912931E-013
 0.912871E-013
 0.911906E-013
 0.913302E-013
 0.909420E-013
 0.915528E-013
 0.915231E-013
 0.907718E-013
 0.911906E-013
 0.909700E-013
 0.910413E-013
 0.909994E-013
 0.909954E-013
 0.909804E-013
 0.909683E-013
 0.909555E-013
 0.909429E-013
 0.909304E-013
 0.909179E-013
 0.909055E-013
 0.908931E-013
 0.908807E-013
 0.908685E-013
 0.908562E-013
 0.908441E-013
 0.908320E-013
 0.908200E-013
 0.908080E-013
 0.907962E-013
 0.907844E-013
 0.907727E-013
 0.907612E-013
 0.907497E-013
 0.907383E-013
 0.907271E-013
 0.907160E-013
 0.907051E-013
 0.906943E-013
 0.906836E-013
 0.906732E-013
 0.906629E-013
 0.906528E-013
 0.906429E-013
 0.906332E-013
 0.906237E-013
 0.906145E-013
 0.906055E-013
 0.905968E-013
 0.905883E-013
 0.905802E-013
 0.905723E-013
 0.905647E-013
 0.905575E-013
 0.905505E-013
 0.905440E-013
 0.905377E-013
 0.905319E-013
 0.905264E-013
 0.905213E-013
 0.905166E-013
 0.905122E-013
 0.905083E-013
 0.905048E-013
 0.905018E-013
 0.904991E-013
 0.904969E-013
 0.904951E-013
 0.904938E-013
 0.904929E-013
 0.904925E-013
 0.904925E-013
 0.904929E-013
 0.904938E-013
 0.904951E-013
 0.904969E-013
 0.904991E-013
 0.905018E-013
 0.905048E-013
 0.905083E-013
 0.905122E-013
 0.905166E-013
 0.905213E-013
 0.905264E-013
 0.905319E-013
 0.905377E-013
 0.905440E-013
 0.905506E-013
 0.905575E-013
 0.905647E-013
 0.905723E-013
 0.905802E-013
 0.905883E-013
 0.905968E-013
 0.906055E-013
 0.906145E-013
 0.906237E-013
 0.906332E-013
 0.906429E-013
 0.906528E-013
 0.906629E-013
 0.906732E-013
 0.906836E-013
 0.906943E-013
 0.907051E-013
 0.907160E-013
 0.907271E-013
 0.907384E-013
 0.907497E-013
 0.907612E-013
 0.907727E-013
 0.907844E-013
 0.907962E-013
 0.908080E-013
 0.908200E-013
 0.908320E-013
 0.908441E-013
 0.908562E-013
 0.908685E-013
 0.908807E-013
 0.908931E-013
 0.909055E-013
 0.909179E-013
 0.909304E-013
 0.909430E-013
 0.909555E-013
 0.909683E-013
 0.909804E-013
 0.909954E-013
 0.909994E-013
 0.910413E-013
 0.909700E-013
 0.911906E-013
 0.907718E-013
 0.915231E-013
 0.916427E-013
 0.907643E-013
 0.912871E-013
 0.910413E-013
 0.911479E-013
 0.911171E-013
 0.911326E-013
 0.911344E-013
 0.911397E-013
 0.911443E-013
 0.911489E-013
 0.911536E-013
 0.911582E-013
 0.911628E-013
 0.911673E-013
 0.911719E-013
 0.911764E-013
 0.911809E-013
 0.911854E-013
 0.911899E-013
 0.911943E-013
 0.911987E-013
 0.912031E-013
 0.912074E-013
 0.912117E-013
 0.912160E-013
 0.912202E-013
 0.912244E-013
 0.912286E-013
 0.912327E-013
 0.912367E-013
 0.912407E-013
 0.912446E-013
 0.912485E-013
 0.912523E-013
 0.912560E-013
 0.912597E-013
 0.912632E-013
 0.912667E-013
 0.912701E-013
 0.912734E-013
 0.912767E-013
 0.912798E-013
 0.912828E-013
 0.912857E-013
 0.912885E-013
 0.912912E-013
 0.912937E-013
 0.912962E-013
 0.912985E-013
 0.913006E-013
 0.913027E-013
 0.913045E-013
 0.913063E-013
 0.913079E-013
 0.913093E-013
 0.913106E-013
 0.913118E-013
 0.913127E-013
 0.913135E-013
 0.913142E-013
 0.913147E-013
 0.913150E-013
 0.913152E-013
 0.913152E-013
 0.913150E-013
 0.913147E-013
 0.913142E-013
 0.913135E-013
 0.913127E-013
 0.913118E-013
 0.913106E-013
 0.913093E-013
 0.913079E-013
 0.913063E-013
 0.913045E-013
 0.913027E-013
 0.913006E-013
 0.912985E-013
 0.912962E-013
 0.912937E-013
 0.912912E-013
 0.912885E-013
 0.912857E-013
 0.912828E-013
 0.912798E-013
 0.912767E-013
 0.912734E-013
 0.912701E-013
 0.912667E-013
 0.912632E-013
 0.912597E-013
 0.912560E-013
 0.912523E-013
 0.912485E-013
 0.912446E-013
 0.912407E-013
 0.912367E-013
 0.912327E-013
 0.912286E-013
 0.912244E-013
 0.912202E-013
 0.912160E-013
 0.912117E-013
 0.912074E-013
 0.912031E-013
 0.911987E-013
 0.911943E-013
 0.911899E-013
 0.911854E-013
 0.911809E-013
 0.911764E-013
 0.911719E-013
 0.911673E-013
 0.911628E-013
 0.911582E-013
 0.911535E-013
 0.911489E-013
 0.911443E-013
 0.911397E-013
 0.911344E-013
 0.911326E-013
 0.911171E-013
 0.911479E-013
 0.910413E-013
 0.912871E-013
 0.907643E-013
 0.916427E-013
 0.917095E-013
 0.906940E-013
 0.912931E-013
 0.909994E-013
 0.911171E-013
 0.910740E-013
 0.910851E-013
 0.910803E-013
 0.910796E-013
 0.910780E-013
 0.910765E-013
 0.910750E-013
 0.910736E-013
 0.910721E-013
 0.910707E-013
 0.910692E-013
 0.910678E-013
 0.910664E-013
 0.910649E-013
 0.910635E-013
 0.910621E-013
 0.910607E-013
 0.910593E-013
 0.910580E-013
 0.910566E-013
 0.910552E-013
 0.910539E-013
 0.910526E-013
 0.910513E-013
 0.910500E-013
 0.910487E-013
 0.910474E-013
 0.910462E-013
 0.910449E-013
 0.910437E-013
 0.910426E-013
 0.910414E-013
 0.910403E-013
 0.910392E-013
 0.910381E-013
 0.910370E-013
 0.910360E-013
 0.910350E-013
 0.910341E-013
 0.910332E-013
 0.910323E-013
 0.910314E-013
 0.910306E-013
 0.910299E-013
 0.910291E-013
 0.910285E-013
 0.910278E-013
 0.910272E-013
 0.910267E-013
 0.910262E-013
 0.910257E-013
 0.910253E-013
 0.910249E-013
 0.910246E-013
 0.910244E-013
 0.910242E-013
 0.910240E-013
 0.910239E-013
 0.910239E-013
 0.910239E-013
 0.910239E-013
 0.910240E-013
 0.910242E-013
 0.910244E-013
 0.910246E-013
 0.910249E-013
 0.910253E-013
 0.910257E-013
 0.910262E-013
 0.910267E-013
 0.910272E-013
 0.910278E-013
 0.910285E-013
 0.910291E-013
 0.910299E-013
 0.910306E-013
 0.910314E-013
 0.910323E-013
 0.910332E-013
 0.910341E-013
 0.910350E-013
 0.910360E-013
 0.910370E-013
 0.910381E-013
 0.910392E-013
 0.910403E-013
 0.910414E-013
 0.910426E-013
 0.910437E-013
 0.910449E-013
 0.910462E-013
 0.910474E-013
 0.910487E-013
 0.910500E-013
 0.910513E-013
 0.910526E-013
 0.910539E-013
 0.910552E-013
 0.910566E-013
 0.910580E-013
 0.910593E-013
 0.910607E-013
 0.910621E-013
 0.910635E-013
 0.910649E-013
 0.910664E-013
 0.910678E-013
 0.910692E-013
 0.910707E-013
 0.910721E-013
 0.910736E-013
 0.910750E-013
 0.910765E-013
 0.910780E-013
 0.910796E-013
 0.910803E-013
 0.910851E-013
 0.910740E-013
 0.911171E-013
 0.909994E-013
 0.912931E-013
 0.906940E-013
 0.917095E-013
 0.917925E-013
 0.906449E-013
 0.913291E-013
 0.909954E-013
 0.911326E-013
 0.910851E-013
 0.911001E-013
 0.910966E-013
 0.910980E-013
 0.910982E-013
 0.910986E-013
 0.910990E-013
 0.910994E-013
 0.910998E-013
 0.911002E-013
 0.911006E-013
 0.911010E-013
 0.911014E-013
 0.911018E-013
 0.911022E-013
 0.911026E-013
 0.911030E-013
 0.911034E-013
 0.911038E-013
 0.911041E-013
 0.911045E-013
 0.911049E-013
 0.911053E-013
 0.911056E-013
 0.911060E-013
 0.911064E-013
 0.911067E-013
 0.911071E-013
 0.911074E-013
 0.911077E-013
 0.911081E-013
 0.911084E-013
 0.911087E-013
 0.911090E-013
 0.911093E-013
 0.911096E-013
 0.911099E-013
 0.911102E-013
 0.911105E-013
 0.911107E-013
 0.911110E-013
 0.911112E-013
 0.911114E-013
 0.911117E-013
 0.911119E-013
 0.911121E-013
 0.911122E-013
 0.911124E-013
 0.911126E-013
 0.911127E-013
 0.911128E-013
 0.911129E-013
 0.911131E-013
 0.911131E-013
 0.911132E-013
 0.911133E-013
 0.911133E-013
 0.911133E-013
 0.911134E-013
 0.911134E-013
 0.911133E-013
 0.911133E-013
 0.911133E-013
 0.911132E-013
 0.911131E-013
 0.911131E-013
 0.911129E-013
 0.911128E-013
 0.911127E-013
 0.911126E-013
 0.911124E-013
 0.911122E-013
 0.911121E-013
 0.911119E-013
 0.911117E-013
 0.911114E-013
 0.911112E-013
 0.911110E-013
 0.911107E-013
 0.911105E-013
 0.911102E-013
 0.911099E-013
 0.911096E-013
 0.911093E-013
 0.911090E-013
 0.911087E-013
 0.911084E-013
 0.911081E-013
 0.911077E-013
 0.911074E-013
 0.911071E-013
 0.911067E-013
 0.911064E-013
 0.911060E-013
 0.911056E-013
 0.911053E-013
 0.911049E-013
 0.911045E-013
 0.911041E-013
 0.911038E-013
 0.911034E-013
 0.911030E-013
 0.911026E-013
 0.911022E-013
 0.911018E-013
 0.911014E-013
 0.911010E-013
 0.911006E-013
 0.911002E-013
 0.910998E-013
 0.910994E-013
 0.910990E-013
 0.910986E-013
 0.910982E-013
 0.910980E-013
 0.910966E-013
 0.911001E-013
 0.910851E-013
 0.911326E-013
 0.909954E-013
 0.913291E-013
 0.906449E-013
 0.917925E-013
 0.918707E-013
 0.905897E-013
 0.913562E-013
 0.909804E-013
 0.911344E-013
 0.910803E-013
 0.910966E-013
 0.910921E-013
 0.910931E-013
 0.910927E-013
 0.910927E-013
 0.910926E-013
 0.910925E-013
 0.910924E-013
 0.910923E-013
 0.910922E-013
 0.910921E-013
 0.910920E-013
 0.910919E-013
 0.910918E-013
 0.910917E-013
 0.910916E-013
 0.910915E-013
 0.910914E-013
 0.910913E-013
 0.910912E-013
 0.910911E-013
 0.910910E-013
 0.910910E-013
 0.910909E-013
 0.910908E-013
 0.910907E-013
 0.910906E-013
 0.910905E-013
 0.910905E-013
 0.910904E-013
 0.910903E-013
 0.910902E-013
 0.910902E-013
 0.910901E-013
 0.910900E-013
 0.910900E-013
 0.910899E-013
 0.910898E-013
 0.910898E-013
 0.910897E-013
 0.910897E-013
 0.910896E-013
 0.910896E-013
 0.910895E-013
 0.910895E-013
 0.910894E-013
 0.910894E-013
 0.910894E-013
 0.910893E-013
 0.910893E-013
 0.910893E-013
 0.910893E-013
 0.910893E-013
 0.910892E-013
 0.910892E-013
 0.910892E-013
 0.910892E-013
 0.910892E-013
 0.910892E-013
 0.910892E-013
 0.910892E-013
 0.910892E-013
 0.910892E-013
 0.910893E-013
 0.910893E-013
 0.910893E-013
 0.910893E-013
 0.910893E-013
 0.910894E-013
 0.910894E-013
 0.910894E-013
 0.910895E-013
 0.910895E-013
 0.910896E-013
 0.910896E-013
 0.910897E-013
 0.910897E-013
 0.910898E-013
 0.910898E-013
 0.910899E-013
 0.910900E-013
 0.910900E-013
 0.910901E-013
 0.910902E-013
 0.910902E-013
 0.910903E-013
 0.910904E-013
 0.910905E-013
 0.910905E-013
 0.910906E-013
 0.910907E-013
 0.910908E-013
 0.910909E-013
 0.910910E-013
 0.910910E-013
 0.910911E-013
 0.910912E-013
 0.910913E-013
 0.910914E-013
 0.910915E-013
 0.910916E-013
 0.910917E-013
 0.910918E-013
 0.910919E-013
 0.910920E-013
 0.910921E-013
 0.910922E-013
 0.910923E-013
 0.910924E-013
 0.910925E-013
 0.910926E-013
 0.910927E-013
 0.910927E-013
 0.910931E-013
 0.910921E-013
 0.910966E-013
 0.910803E-013
 0.911344E-013
 0.909804E-013
 0.913562E-013
 0.905897E-013
 0.918707E-013
 0.919498E-013
 0.905363E-013
 0.913855E-013
 0.909683E-013
 0.911397E-013
 0.910796E-013
 0.910980E-013
 0.910931E-013
 0.910943E-013
 0.910940E-013
 0.910941E-013
 0.910941E-013
 0.910941E-013
 0.910942E-013
 0.910942E-013
 0.910942E-013
 0.910942E-013
 0.910943E-013
 0.910943E-013
 0.910943E-013
 0.910943E-013
 0.910943E-013
 0.910944E-013
 0.910944E-013
 0.910944E-013
 0.910944E-013
 0.910945E-013
 0.910945E-013
 0.910945E-013
 0.910945E-013
 0.910945E-013
 0.910946E-013
 0.910946E-013
 0.910946E-013
 0.910946E-013
 0.910947E-013
 0.910947E-013
 0.910947E-013
 0.910947E-013
 0.910947E-013
 0.910948E-013
 0.910948E-013
 0.910948E-013
 0.910948E-013
 0.910948E-013
 0.910949E-013
 0.910949E-013
 0.910949E-013
 0.910949E-013
 0.910949E-013
 0.910949E-013
 0.910950E-013
 0.910950E-013
 0.910950E-013
 0.910950E-013
 0.910950E-013
 0.910950E-013
 0.910950E-013
 0.910950E-013
 0.910950E-013
 0.910950E-013
 0.910951E-013
 0.910951E-013
 0.910951E-013
 0.910951E-013
 0.910951E-013
 0.910951E-013
 0.910950E-013
 0.910950E-013
 0.910950E-013
 0.910950E-013
 0.910950E-013
 0.910950E-013
 0.910950E-013
 0.910950E-013
 0.910950E-013
 0.910950E-013
 0.910949E-013
 0.910949E-013
 0.910949E-013
 0.910949E-013
 0.910949E-013
 0.910949E-013
 0.910948E-013
 0.910948E-013
 0.910948E-013
 0.910948E-013
 0.910948E-013
 0.910947E-013
 0.910947E-013
 0.910947E-013
 0.910947E-013
 0.910947E-013
 0.910946E-013
 0.910946E-013
 0.910946E-013
 0.910946E-013
 0.910945E-013
 0.910945E-013
 0.910945E-013
 0.910945E-013
 0.910945E-013
 0.910944E-013
 0.910944E-013
 0.910944E-013
 0.910944E-013
 0.910943E-013
 0.910943E-013
 0.910943E-013
 0.910943E-013
 0.910943E-013
 0.910942E-013
 0.910942E-013
 0.910942E-013
 0.910942E-013
 0.910941E-013
 0.910941E-013
 0.910941E-013
 0.910940E-013
 0.910943E-013
 0.910931E-013
 0.910980E-013
 0.910796E-013
 0.911397E-013
 0.909683E-013
 0.913855E-013
 0.905363E-013
 0.919498E-013
 0.920284E-013
 0.904827E-013
 0.914142E-013
 0.909555E-013
 0.911443E-013
 0.910780E-013
 0.910982E-013
 0.910927E-013
 0.910940E-013
 0.910937E-013
 0.910938E-013
 0.910938E-013
 0.910938E-013
 0.910938E-013
 0.910938E-013
 0.910938E-013
 0.910938E-013
 0.910938E-013
 0.910938E-013
 0.910938E-013
 0.910937E-013
 0.910937E-013
 0.910937E-013
 0.910937E-013
 0.910937E-013
 0.910937E-013
 0.910937E-013
 0.910937E-013
 0.910937E-013
 0.910937E-013
 0.910937E-013
 0.910937E-013
 0.910937E-013
 0.910937E-013
 0.910937E-013
 0.910937E-013
 0.910937E-013
 0.910937E-013
 0.910937E-013
 0.910937E-013
 0.910937E-013
 0.910938E-013
 0.910938E-013
 0.910938E-013
 0.910938E-013
 0.910938E-013
 0.910938E-013
 0.910938E-013
 0.910938E-013
 0.910938E-013
 0.910938E-013
 0.910938E-013
 0.910938E-013
 0.910938E-013
 0.910938E-013
 0.910938E-013
 0.910938E-013
 0.910938E-013
 0.910938E-013
 0.910938E-013
 0.910938E-013
 0.910938E-013
 0.910938E-013
 0.910938E-013
 0.910938E-013
 0.910938E-013
 0.910938E-013
 0.910938E-013
 0.910938E-013
 0.910938E-013
 0.910938E-013
 0.910938E-013
 0.910938E-013
 0.910938E-013
 0.910938E-013
 0.910938E-013
 0.910938E-013
 0.910938E-013
 0.910938E-013
 0.910938E-013
 0.910938E-013
 0.910938E-013
 0.910938E-013
 0.910938E-013
 0.910938E-013
 0.910938E-013
 0.910938E-013
 0.910937E-013
 0.910937E-013
 0.910937E-013
 0.910937E-013
 0.910937E-013
 0.910937E-013
 0.910937E-013
 0.910937E-013
 0.910937E-013
 0.910937E-013
 0.910937E-013
 0.910937E-013
 0.910937E-013
 0.910937E-013
 0.910937E-013
 0.910937E-013
 0.910937E-013
 0.910937E-013
 0.910937E-013
 0.910937E-013
 0.910937E-013
 0.910938E-013
 0.910938E-013
 0.910938E-013
 0.910938E-013
 0.910938E-013
 0.910938E-013
 0.910938E-013
 0.910938E-013
 0.910938E-013
 0.910938E-013
 0.910937E-013
 0.910940E-013
 0.910927E-013
 0.910982E-013
 0.910780E-013
 0.911442E-013
 0.909555E-013
 0.914141E-013
 0.904827E-013
 0.920284E-013
 0.921068E-013
 0.904293E-013
 0.914429E-013
 0.909429E-013
 0.911489E-013
 0.910765E-013
 0.910986E-013
 0.910927E-013
 0.910941E-013
 0.910938E-013
 0.910939E-013
 0.910938E-013
 0.910938E-013
 0.910939E-013
 0.910939E-013
 0.910939E-013
 0.910939E-013
 0.910939E-013
 0.910939E-013
 0.910939E-013
 0.910939E-013
 0.910939E-013
 0.910939E-013
 0.910939E-013
 0.910939E-013
 0.910939E-013
 0.910939E-013
 0.910939E-013
 0.910939E-013
 0.910939E-013
 0.910939E-013
 0.910939E-013
 0.910939E-013
 0.910939E-013
 0.910939E-013
 0.910939E-013
 0.910939E-013
 0.910939E-013
 0.910940E-013
 0.910940E-013
 0.910940E-013
 0.910940E-013
 0.910940E-013
 0.910940E-013
 0.910940E-013
 0.910940E-013
 0.910940E-013
 0.910940E-013
 0.910940E-013