# vtk DataFile Version 3.0
Solution data
ASCII
DATASET STRUCTURED_GRID
DIMENSIONS 128 128 1
POINTS 16384  double
      0.000004      0.000004      0.000000
      0.000012      0.000004      0.000000
      0.000020      0.000004      0.000000
      0.000027      0.000004      0.000000
      0.000035      0.000004      0.000000
      0.000043      0.000004      0.000000
      0.000051      0.000004      0.000000
      0.000059      0.000004      0.000000
      0.000066      0.000004      0.000000
      0.000074      0.000004      0.000000
      0.000082      0.000004      0.000000
      0.000090      0.000004      0.000000
      0.000098      0.000004      0.000000
      0.000105      0.000004      0.000000
      0.000113      0.000004      0.000000
      0.000121      0.000004      0.000000
      0.000129      0.000004      0.000000
      0.000137      0.000004      0.000000
      0.000145      0.000004      0.000000
      0.000152      0.000004      0.000000
      0.000160      0.000004      0.000000
      0.000168      0.000004      0.000000
      0.000176      0.000004      0.000000
      0.000184      0.000004      0.000000
      0.000191      0.000004      0.000000
      0.000199      0.000004      0.000000
      0.000207      0.000004      0.000000
      0.000215      0.000004      0.000000
      0.000223      0.000004      0.000000
      0.000230      0.000004      0.000000
      0.000238      0.000004      0.000000
      0.000246      0.000004      0.000000
      0.000254      0.000004      0.000000
      0.000262      0.000004      0.000000
      0.000270      0.000004      0.000000
      0.000277      0.000004      0.000000
      0.000285      0.000004      0.000000
      0.000293      0.000004      0.000000
      0.000301      0.000004      0.000000
      0.000309      0.000004      0.000000
      0.000316      0.000004      0.000000
      0.000324      0.000004      0.000000
      0.000332      0.000004      0.000000
      0.000340      0.000004      0.000000
      0.000348      0.000004      0.000000
      0.000355      0.000004      0.000000
      0.000363      0.000004      0.000000
      0.000371      0.000004      0.000000
      0.000379      0.000004      0.000000
      0.000387      0.000004      0.000000
      0.000395      0.000004      0.000000
      0.000402      0.000004      0.000000
      0.000410      0.000004      0.000000
      0.000418      0.000004      0.000000
      0.000426      0.000004      0.000000
      0.000434      0.000004      0.000000
      0.000441      0.000004      0.000000
      0.000449      0.000004      0.000000
      0.000457      0.000004      0.000000
      0.000465      0.000004      0.000000
      0.000473      0.000004      0.000000
      0.000480      0.000004      0.000000
      0.000488      0.000004      0.000000
      0.000496      0.000004      0.000000
      0.000504      0.000004      0.000000
      0.000512      0.000004      0.000000
      0.000520      0.000004      0.000000
      0.000527      0.000004      0.000000
      0.000535      0.000004      0.000000
      0.000543      0.000004      0.000000
      0.000551      0.000004      0.000000
      0.000559      0.000004      0.000000
      0.000566      0.000004      0.000000
      0.000574      0.000004      0.000000
      0.000582      0.000004      0.000000
      0.000590      0.000004      0.000000
      0.000598      0.000004      0.000000
      0.000605      0.000004      0.000000
      0.000613      0.000004      0.000000
      0.000621      0.000004      0.000000
      0.000629      0.000004      0.000000
      0.000637      0.000004      0.000000
      0.000645      0.000004      0.000000
      0.000652      0.000004      0.000000
      0.000660      0.000004      0.000000
      0.000668      0.000004      0.000000
      0.000676      0.000004      0.000000
      0.000684      0.000004      0.000000
      0.000691      0.000004      0.000000
      0.000699      0.000004      0.000000
      0.000707      0.000004      0.000000
      0.000715      0.000004      0.000000
      0.000723      0.000004      0.000000
      0.000730      0.000004      0.000000
      0.000738      0.000004      0.000000
      0.000746      0.000004      0.000000
      0.000754      0.000004      0.000000
      0.000762      0.000004      0.000000
      0.000770      0.000004      0.000000
      0.000777      0.000004      0.000000
      0.000785      0.000004      0.000000
      0.000793      0.000004      0.000000
      0.000801      0.000004      0.000000
      0.000809      0.000004      0.000000
      0.000816      0.000004      0.000000
      0.000824      0.000004      0.000000
      0.000832      0.000004      0.000000
      0.000840      0.000004      0.000000
      0.000848      0.000004      0.000000
      0.000855      0.000004      0.000000
      0.000863      0.000004      0.000000
      0.000871      0.000004      0.000000
      0.000879      0.000004      0.000000
      0.000887      0.000004      0.000000
      0.000895      0.000004      0.000000
      0.000902      0.000004      0.000000
      0.000910      0.000004      0.000000
      0.000918      0.000004      0.000000
      0.000926      0.000004      0.000000
      0.000934      0.000004      0.000000
      0.000941      0.000004      0.000000
      0.000949      0.000004      0.000000
      0.000957      0.000004      0.000000
      0.000965      0.000004      0.000000
      0.000973      0.000004      0.000000
      0.000980      0.000004      0.000000
      0.000988      0.000004      0.000000
      0.000996      0.000004      0.000000
      0.000004      0.000012      0.000000
      0.000012      0.000012      0.000000
      0.000020      0.000012      0.000000
      0.000027      0.000012      0.000000
      0.000035      0.000012      0.000000
      0.000043      0.000012      0.000000
      0.000051      0.000012      0.000000
      0.000059      0.000012      0.000000
      0.000066      0.000012      0.000000
      0.000074      0.000012      0.000000
      0.000082      0.000012      0.000000
      0.000090      0.000012      0.000000
      0.000098      0.000012      0.000000
      0.000105      0.000012      0.000000
      0.000113      0.000012      0.000000
      0.000121      0.000012      0.000000
      0.000129      0.000012      0.000000
      0.000137      0.000012      0.000000
      0.000145      0.000012      0.000000
      0.000152      0.000012      0.000000
      0.000160      0.000012      0.000000
      0.000168      0.000012      0.000000
      0.000176      0.000012      0.000000
      0.000184      0.000012      0.000000
      0.000191      0.000012      0.000000
      0.000199      0.000012      0.000000
      0.000207      0.000012      0.000000
      0.000215      0.000012      0.000000
      0.000223      0.000012      0.000000
      0.000230      0.000012      0.000000
      0.000238      0.000012      0.000000
      0.000246      0.000012      0.000000
      0.000254      0.000012      0.000000
      0.000262      0.000012      0.000000
      0.000270      0.000012      0.000000
      0.000277      0.000012      0.000000
      0.000285      0.000012      0.000000
      0.000293      0.000012      0.000000
      0.000301      0.000012      0.000000
      0.000309      0.000012      0.000000
      0.000316      0.000012      0.000000
      0.000324      0.000012      0.000000
      0.000332      0.000012      0.000000
      0.000340      0.000012      0.000000
      0.000348      0.000012      0.000000
      0.000355      0.000012      0.000000
      0.000363      0.000012      0.000000
      0.000371      0.000012      0.000000
      0.000379      0.000012      0.000000
      0.000387      0.000012      0.000000
      0.000395      0.000012      0.000000
      0.000402      0.000012      0.000000
      0.000410      0.000012      0.000000
      0.000418      0.000012      0.000000
      0.000426      0.000012      0.000000
      0.000434      0.000012      0.000000
      0.000441      0.000012      0.000000
      0.000449      0.000012      0.000000
      0.000457      0.000012      0.000000
      0.000465      0.000012      0.000000
      0.000473      0.000012      0.000000
      0.000480      0.000012      0.000000
      0.000488      0.000012      0.000000
      0.000496      0.000012      0.000000
      0.000504      0.000012      0.000000
      0.000512      0.000012      0.000000
      0.000520      0.000012      0.000000
      0.000527      0.000012      0.000000
      0.000535      0.000012      0.000000
      0.000543      0.000012      0.000000
      0.000551      0.000012      0.000000
      0.000559      0.000012      0.000000
      0.000566      0.000012      0.000000
      0.000574      0.000012      0.000000
      0.000582      0.000012      0.000000
      0.000590      0.000012      0.000000
      0.000598      0.000012      0.000000
      0.000605      0.000012      0.000000
      0.000613      0.000012      0.000000
      0.000621      0.000012      0.000000
      0.000629      0.000012      0.000000
      0.000637      0.000012      0.000000
      0.000645      0.000012      0.000000
      0.000652      0.000012      0.000000
      0.000660      0.000012      0.000000
      0.000668      0.000012      0.000000
      0.000676      0.000012      0.000000
      0.000684      0.000012      0.000000
      0.000691      0.000012      0.000000
      0.000699      0.000012      0.000000
      0.000707      0.000012      0.000000
      0.000715      0.000012      0.000000
      0.000723      0.000012      0.000000
      0.000730      0.000012      0.000000
      0.000738      0.000012      0.000000
      0.000746      0.000012      0.000000
      0.000754      0.000012      0.000000
      0.000762      0.000012      0.000000
      0.000770      0.000012      0.000000
      0.000777      0.000012      0.000000
      0.000785      0.000012      0.000000
[...]
POINT_DATA 16384
SCALARS rhoe double
LOOKUP_TABLE default
 0.915134E-013
 0.913138E-013
 0.915045E-013
 0.915875E-013
 0.916939E-013
 0.917957E-013
 0.918980E-013
 0.919999E-013
 0.921016E-013
 0.922031E-013
 0.923042E-013
 0.924051E-013
 0.925057E-013
 0.926060E-013
 0.927059E-013
 0.928054E-013
 0.929046E-013
 0.930034E-013
 0.931017E-013
 0.931995E-013
 0.932968E-013
 0.933936E-013
 0.934898E-013
 0.935853E-013
 0.936801E-013
 0.937742E-013
 0.938674E-013
 0.939598E-013
 0.940512E-013
 0.941417E-013
 0.942310E-013
 0.943192E-013
 0.944061E-013
 0.944917E-013
 0.945759E-013
 0.946586E-013
 0.947397E-013
 0.948192E-013
 0.948968E-013
 0.949725E-013
 0.950463E-013
 0.951180E-013
 0.951875E-013
 0.952547E-013
 0.953195E-013
 0.953818E-013
 0.954416E-013
 0.954986E-013
 0.955529E-013
 0.956043E-013
 0.956527E-013
 0.956981E-013
 0.957403E-013
 0.957793E-013
 0.958150E-013
 0.958473E-013
 0.958763E-013
 0.959017E-013
 0.959236E-013
 0.959419E-013
 0.959566E-013
 0.959676E-013
 0.959750E-013
 0.959787E-013
 0.959787E-013
 0.959750E-013
 0.959676E-013
 0.959566E-013
 0.959419E-013
 0.959236E-013
 0.959017E-013
 0.958762E-013
 0.958473E-013
 0.958150E-013
 0.957793E-013
 0.957403E-013
 0.956980E-013
 0.956527E-013
 0.956043E-013
 0.955529E-013
 0.954986E-013
 0.954415E-013
 0.953818E-013
 0.953195E-013
 0.952546E-013
 0.951874E-013
 0.951179E-013
 0.950462E-013
 0.949725E-013
 0.948967E-013
 0.948191E-013
 0.947397E-013
 0.946586E-013
 0.945759E-013
 0.944917E-013
 0.944061E-013
 0.943191E-013
 0.942309E-013
 0.941416E-013
 0.940512E-013
 0.939597E-013
 0.938674E-013
 0.937741E-013
 0.936800E-013
 0.935852E-013
 0.934897E-013
 0.933935E-013
 0.932968E-013
 0.931994E-013
 0.931016E-013
 0.930033E-013
 0.929045E-013
 0.928054E-013
 0.927058E-013
 0.926059E-013
 0.925056E-013
 0.924051E-013
 0.923042E-013
 0.922030E-013
 0.921016E-013
 0.919999E-013
 0.918980E-013
 0.917957E-013
 0.916938E-013
 0.915875E-013
 0.915045E-013
 0.913138E-013
 0.915133E-013
 0.913138E-013
 0.908927E-013
 0.909785E-013
 0.909086E-013
 0.908752E-013
 0.908350E-013
 0.907961E-013
 0.907571E-013
 0.907183E-013
 0.906795E-013
 0.906409E-013
 0.906024E-013
 0.905640E-013
 0.905258E-013
 0.904876E-013
 0.904497E-013
 0.904119E-013
 0.903743E-013
 0.903368E-013
 0.902996E-013
 0.902625E-013
 0.902257E-013
 0.901891E-013
 0.901528E-013
 0.901167E-013
 0.900810E-013
 0.900455E-013
 0.900104E-013
 0.899757E-013
 0.899414E-013
 0.899074E-013
 0.898740E-013
 0.898410E-013
 0.898085E-013
 0.897766E-013
 0.897452E-013
 0.897145E-013
 0.896844E-013
 0.896550E-013
 0.896263E-013
 0.895983E-013
 0.895712E-013
 0.895449E-013
 0.895194E-013
 0.894949E-013
 0.894713E-013
 0.894487E-013
 0.894271E-013
 0.894066E-013
 0.893872E-013
 0.893689E-013
 0.893517E-013
 0.893357E-013
 0.893210E-013
 0.893075E-013
 0.892953E-013
 0.892844E-013
 0.892748E-013
 0.892665E-013
 0.892596E-013
 0.892540E-013
 0.892498E-013
 0.892471E-013
 0.892457E-013
 0.892457E-013
 0.892471E-013
 0.892499E-013
 0.892540E-013
 0.892596E-013
 0.892665E-013
 0.892748E-013
 0.892844E-013
 0.892953E-013
 0.893075E-013
 0.893210E-013
 0.893358E-013
 0.893517E-013
 0.893689E-013
 0.893872E-013
 0.894066E-013
 0.894272E-013
 0.894487E-013
 0.894713E-013
 0.894949E-013
 0.895195E-013
 0.895449E-013
 0.895712E-013
 0.895984E-013
 0.896263E-013
 0.896550E-013
 0.896844E-013
 0.897145E-013
 0.897453E-013
 0.897766E-013
 0.898086E-013
 0.898410E-013
 0.898740E-013
 0.899075E-013
 0.899414E-013
 0.899758E-013
 0.900105E-013
 0.900456E-013
 0.900810E-013
 0.901168E-013
 0.901528E-013
 0.901892E-013
 0.902257E-013
 0.902626E-013
 0.902996E-013
 0.903369E-013
 0.903743E-013
 0.904119E-013
 0.904497E-013
 0.904877E-013
 0.905258E-013
 0.905640E-013
 0.906024E-013
 0.906409E-013
 0.906795E-013
 0.907183E-013
 0.907571E-013
 0.907961E-013
 0.908351E-013
 0.908752E-013
 0.909086E-013
 0.909785E-013
 0.908928E-013
 0.913138E-013
 0.915045E-013
 0.909785E-013
 0.911664E-013
 0.911334E-013
 0.911523E-013
 0.911615E-013
 0.911721E-013
 0.911825E-013
 0.911929E-013
 0.912032E-013
 0.912136E-013
 0.912239E-013
 0.912341E-013
 0.912443E-013
 0.912545E-013
 0.912646E-013
 0.912747E-013
 0.912848E-013
 0.912948E-013
 0.913047E-013
 0.913146E-013
 0.913245E-013
 0.913342E-013
 0.913439E-013
 0.913535E-013
 0.913631E-013
 0.913725E-013
 0.913819E-013
 0.913912E-013
 0.914003E-013
 0.914094E-013
 0.914183E-013
 0.914271E-013
 0.914358E-013
 0.914443E-013
 0.914527E-013
 0.914609E-013
 0.914689E-013
 0.914767E-013
 0.914844E-013
 0.914918E-013
 0.914991E-013
 0.915061E-013
 0.915129E-013
 0.915194E-013
 0.915257E-013
 0.915318E-013
 0.915375E-013
 0.915430E-013
 0.915482E-013
 0.915531E-013
 0.915576E-013
 0.915619E-013
 0.915658E-013
 0.915694E-013
 0.915727E-013
 0.915756E-013
 0.915782E-013
 0.915804E-013
 0.915822E-013
 0.915837E-013
 0.915848E-013
 0.915855E-013
 0.915859E-013
 0.915859E-013
 0.915855E-013
 0.915848E-013
 0.915837E-013
 0.915822E-013
 0.915804E-013
 0.915781E-013
 0.915756E-013
 0.915727E-013
 0.915694E-013
 0.915658E-013
 0.915619E-013
 0.915576E-013
 0.915530E-013
 0.915482E-013
 0.915430E-013
 0.915375E-013
 0.915317E-013
 0.915257E-013
 0.915194E-013
 0.915129E-013
 0.915061E-013
 0.914991E-013
 0.914918E-013
 0.914844E-013
 0.914767E-013
 0.914689E-013
 0.914609E-013
 0.914527E-013
 0.914443E-013
 0.914358E-013
 0.914271E-013
 0.914183E-013
 0.914094E-013
 0.914003E-013
 0.913912E-013
 0.913819E-013
 0.913725E-013
 0.913631E-013
 0.913535E-013
 0.913439E-013
 0.913342E-013
 0.913244E-013
 0.913146E-013
 0.913047E-013
 0.912948E-013
 0.912848E-013
 0.912747E-013
 0.912646E-013
 0.912545E-013
 0.912443E-013
 0.912341E-013
 0.912239E-013
 0.912136E-013
 0.912032E-013
 0.911929E-013
 0.911825E-013
 0.911721E-013
 0.911615E-013
 0.911523E-013
 0.911334E-013
 0.911664E-013
 0.909785E-013
 0.915045E-013
 0.915875E-013
 0.909086E-013
 0.911334E-013
 0.910750E-013
 0.910838E-013
 0.910799E-013
 0.910780E-013
 0.910759E-013
 0.910737E-013
 0.910716E-013
 0.910695E-013
 0.910674E-013
 0.910653E-013
 0.910632E-013
 0.910612E-013
 0.910591E-013
 0.910570E-013
 0.910550E-013
 0.910529E-013
 0.910509E-013
 0.910489E-013
 0.910469E-013
 0.910449E-013
 0.910429E-013
 0.910410E-013
 0.910390E-013
 0.910371E-013
 0.910352E-013
 0.910333E-013
 0.910315E-013
 0.910296E-013
 0.910278E-013
 0.910260E-013
 0.910243E-013
 0.910226E-013
 0.910209E-013
 0.910192E-013
 0.910176E-013
 0.910160E-013
 0.910145E-013
 0.910130E-013
 0.910115E-013
 0.910101E-013
 0.910087E-013
 0.910074E-013
 0.910061E-013
 0.910049E-013
 0.910038E-013
 0.910027E-013
 0.910016E-013
 0.910006E-013
 0.909997E-013
 0.909989E-013
 0.909981E-013
 0.909974E-013
 0.909967E-013
 0.909961E-013
 0.909956E-013
 0.909952E-013
 0.909948E-013
 0.909945E-013
 0.909943E-013
 0.909941E-013
 0.909941E-013
 0.909941E-013
 0.909941E-013
 0.909943E-013
 0.909945E-013
 0.909948E-013
 0.909952E-013
 0.909956E-013
 0.909961E-013
 0.909967E-013
 0.909974E-013
 0.909981E-013
 0.909989E-013
 0.909997E-013
 0.910007E-013
 0.910016E-013
 0.910027E-013
 0.910038E-013
 0.910049E-013
 0.910061E-013
 0.910074E-013
 0.910087E-013
 0.910101E-013
 0.910115E-013
 0.910130E-013
 0.910145E-013
 0.910160E-013
 0.910176E-013
 0.910192E-013
 0.910209E-013
 0.910226E-013
 0.910243E-013
 0.910261E-013
 0.910278E-013
 0.910296E-013
 0.910315E-013
 0.910333E-013
 0.910352E-013
 0.910371E-013
 0.910390E-013
 0.910410E-013
 0.910429E-013
 0.910449E-013
 0.910469E-013
 0.910489E-013
 0.910509E-013
 0.910529E-013
 0.910550E-013
 0.910570E-013
 0.910591E-013
 0.910612E-013
 0.910632E-013
 0.910653E-013
 0.910674E-013
 0.910695E-013
 0.910716E-013
 0.910737E-013
 0.910759E-013
 0.910780E-013
 0.910799E-013
 0.910838E-013
 0.910750E-013
 0.911334E-013
 0.909086E-013
 0.915875E-013
 0.916939E-013
 0.908752E-013
 0.911523E-013
 0.910838E-013
 0.910976E-013
 0.910958E-013
 0.910965E-013
 0.910968E-013
 0.910971E-013
 0.910975E-013
 0.910978E-013
 0.910982E-013
 0.910985E-013
 0.910989E-013
 0.910992E-013
 0.910996E-013
 0.910999E-013
 0.911002E-013
 0.911006E-013
 0.911009E-013
 0.911012E-013
 0.911016E-013
 0.911019E-013
 0.911022E-013
 0.911026E-013
 0.911029E-013
 0.911032E-013
 0.911035E-013
 0.911038E-013
 0.911042E-013
 0.911045E-013
 0.911048E-013
 0.911051E-013
 0.911054E-013
 0.911057E-013
 0.911060E-013
 0.911062E-013
 0.911065E-013
 0.911068E-013
 0.911071E-013
 0.911073E-013
 0.911076E-013
 0.911078E-013
 0.911080E-013
 0.911083E-013
 0.911085E-013
 0.911087E-013
 0.911089E-013
 0.911091E-013
 0.911093E-013
 0.911095E-013
 0.911096E-013
 0.911098E-013
 0.911099E-013
 0.911101E-013
 0.911102E-013
 0.911103E-013
 0.911104E-013
 0.911105E-013
 0.911105E-013
 0.911106E-013
 0.911106E-013
 0.911106E-013
 0.911107E-013
 0.911107E-013
 0.911106E-013
 0.911106E-013
 0.911106E-013
 0.911105E-013
 0.911105E-013
 0.911104E-013
 0.911103E-013
 0.911102E-013
 0.911101E-013
 0.911099E-013
 0.911098E-013
 0.911096E-013
 0.911095E-013
 0.911093E-013
 0.911091E-013
 0.911089E-013
 0.911087E-013
 0.911085E-013
 0.911083E-013
 0.911080E-013
 0.911078E-013
 0.911076E-013
 0.911073E-013
 0.911071E-013
 0.911068E-013
 0.911065E-013
 0.911062E-013
 0.911060E-013
 0.911057E-013
 0.911054E-013
 0.911051E-013
 0.911048E-013
 0.911045E-013
 0.911042E-013
 0.911038E-013
 0.911035E-013
 0.911032E-013
 0.911029E-013
 0.911026E-013
 0.911022E-013
 0.911019E-013
 0.911016E-013
 0.911012E-013
 0.911009E-013
 0.911006E-013
 0.911002E-013
 0.910999E-013
 0.910996E-013
 0.910992E-013
 0.910989E-013
 0.910985E-013
 0.910982E-013
 0.910978E-013
 0.910975E-013
 0.910971E-013
 0.910968E-013
 0.910965E-013
 0.910958E-013
 0.910976E-013
 0.910838E-013
 0.911523E-013
 0.908752E-013
 0.916938E-013
 0.917957E-013
 0.908350E-013
 0.911615E-013
 0.910799E-013
 0.910958E-013
 0.910932E-013
 0.910935E-013
 0.910934E-013
 0.910934E-013
 0.910933E-013
 0.910933E-013
 0.910932E-013
 0.910932E-013
 0.910931E-013
 0.910931E-013
 0.910930E-013
 0.910930E-013
 0.910930E-013
 0.910929E-013
 0.910929E-013
 0.910928E-013
 0.910928E-013
 0.910927E-013
 0.910927E-013
 0.910927E-013
 0.910926E-013
 0.910926E-013
 0.910925E-013
 0.910925E-013
 0.910925E-013
 0.910924E-013
 0.910924E-013
 0.910924E-013
 0.910923E-013
 0.910923E-013
 0.910923E-013
 0.910922E-013
 0.910922E-013
 0.910922E-013
 0.910922E-013
 0.910921E-013
 0.910921E-013
 0.910921E-013
 0.910921E-013
 0.910921E-013
 0.910921E-013
 0.910921E-013
 0.910920E-013
 0.910920E-013
 0.910920E-013
 0.910920E-013
 0.910920E-013
 0.910920E-013
 0.910920E-013
 0.910920E-013
 0.910920E-013
 0.910920E-013
 0.910920E-013
 0.910920E-013
 0.910920E-013
 0.910920E-013
 0.910920E-013
 0.910920E-013
 0.910920E-013
 0.910920E-013
 0.910920E-013
 0.910920E-013
 0.910920E-013
 0.910920E-013
 0.910920E-013
 0.910920E-013
 0.910920E-013
 0.910920E-013
 0.910920E-013
 0.910920E-013
 0.910920E-013
 0.910920E-013
 0.910920E-013
 0.910920E-013
 0.910920E-013
 0.910920E-013
 0.910921E-013
 0.910921E-013
 0.910921E-013
 0.910921E-013
 0.910921E-013
 0.910921E-013
 0.910922E-013
 0.910922E-013
 0.910922E-013
 0.910922E-013
 0.910922E-013
 0.910923E-013
 0.910923E-013
 0.910923E-013
 0.910924E-013
 0.910924E-013
 0.910924E-013
 0.910925E-013
 0.910925E-013
 0.910925E-013
 0.910926E-013
 0.910926E-013
 0.910927E-013
 0.910927E-013
 0.910927E-013
 0.910928E-013
 0.910928E-013
 0.910929E-013
 0.910929E-013
 0.910930E-013
 0.910930E-013
 0.910930E-013
 0.910931E-013
 0.910931E-013
 0.910932E-013
 0.910932E-013
 0.910933E-013
 0.910933E-013
 0.910934E-013
 0.910934E-013
 0.910935E-013
 0.910932E-013
 0.910958E-013
 0.910799E-013
 0.911615E-013
 0.908351E-013
 0.917957E-013
 0.918980E-013
 0.907961E-013
 0.911721E-013
 0.910780E-013
 0.910965E-013
 0.910935E-013
 0.910939E-013
 0.910939E-013
 0.910939E-013
 0.910939E-013
 0.910939E-013
 0.910939E-013
 0.910939E-013
 0.910939E-013
 0.910939E-013
 0.910939E-013
 0.910939E-013
 0.910939E-013
 0.910940E-013
 0.910940E-013
 0.910940E-013
 0.910940E-013
 0.910940E-013
 0.910940E-013
 0.910940E-013
 0.910940E-013
 0.910940E-013
 0.910940E-013
 0.910941E-013
 0.910941E-013
 0.910941E-013
 0.910941E-013
 0.910941E-013
 0.910941E-013
 0.910941E-013
 0.910942E-013
 0.910942E-013
 0.910942E-013
 0.910942E-013
 0.910942E-013
 0.910942E-013
 0.910943E-013
 0.910943E-013
 0.910943E-013
 0.910943E-013
 0.910944E-013
 0.910944E-013
 0.910944E-013
 0.910944E-013
 0.910944E-013
 0.910945E-013
 0.910945E-013
 0.910945E-013
 0.910945E-013
 0.910945E-013
 0.910945E-013
 0.910946E-013
 0.910946E-013
 0.910946E-013
 0.910946E-013
 0.910946E-013
 0.910946E-013
 0.910946E-013
 0.910946E-013
 0.910946E-013
 0.910946E-013
 0.910946E-013
 0.910946E-013
 0.910946E-013
 0.910946E-013
 0.910946E-013
 0.910946E-013
 0.910945E-013
 0.910945E-013
 0.910945E-013
 0.910945E-013
 0.910945E-013
 0.910945E-013
 0.910944E-013
 0.910944E-013
 0.910944E-013
 0.910944E-013
 0.910944E-013
 0.910943E-013
 0.910943E-013
 0.910943E-013
 0.910943E-013
 0.910943E-013
 0.910942E-013
 0.910942E-013
 0.910942E-013
 0.910942E-013
 0.910942E-013
 0.910941E-013
 0.910941E-013
 0.910941E-013
 0.910941E-013
 0.910941E-013
 0.910941E-013
 0.910941E-013
 0.910940E-013
 0.910940E-013
 0.910940E-013
 0.910940E-013
 0.910940E-013
 0.910940E-013
 0.910940E-013
 0.910940E-013
 0.910940E-013
 0.910940E-013
 0.910939E-013
 0.910939E-013
 0.910939E-013
 0.910939E-013
 0.910939E-013
 0.910939E-013
 0.910939E-013
 0.910939E-013
 0.910939E-013
 0.910939E-013
 0.910939E-013
 0.910939E-013
 0.910935E-013
 0.910965E-013
 0.910780E-013
 0.911721E-013
 0.907961E-013
 0.918980E-013
 0.919999E-013
 0.907571E-013
 0.911825E-013
 0.910759E-013
 0.910968E-013
 0.910934E-013
 0.910939E-013
 0.910938E-013
 0.910938E-013
 0.910938E-013
 0.910938E-013
 0.910938E-013
 0.910938E-013
 0.910938E-013
 0.910938E-013
 0.910938E-013
 0.910938E-013
 0.910938E-013
 0.910938E-013
 0.910938E-013
 0.910938E-013
 0.910938E-013
 0.910938E-013
 0.910938E-013
 0.910939E-013
 0.910939E-013
 0.910939E-013
 0.910939E-013
 0.910939E-013
 0.910939E-013
 0.910939E-013
 0.910939E-013
 0.910939E-013
 0.910939E-013
 0.910939E-013
 0.910940E-013
 0.910940E-013
 0.910940E-013
 0.910940E-013
 0.910940E-013
 0.910940E-013
 0.910941E-013
 0.910941E-013
 0.910941E-013
 0.910941E-013
 0.910941E-013
 0.910942E-013
 0.910942E-013
 0.910942E-013
 0.910942E-013
 0.910942E-013
 0.910943E-013
 0.910943E-013
 0.910943E-013
 0.910943E-013
 0.910943E-013
 0.910943E-013
 0.910944E-013
 0.910944E-013
 0.910944E-013
 0.910944E-013
 0.910944E-013
 0.910944E-013
 0.910944E-013
 0.910944E-013
 0.910944E-013
 0.910944E-013
 0.910944E-013
 0.910944E-013
 0.910944E-013
 0.910944E-013
 0.910943E-013
 0.910943E-013
 0.910943E-013
 0.910943E-013
 0.910943E-013
 0.910943E-013
 0.910942E-013
 0.910942E-013
 0.910942E-013
 0.910942E-013
 0.910942E-013
 0.910941E-013
 0.910941E-013
 0.910941E-013
 0.910941E-013
 0.910941E-013
 0.910940E-013
 0.910940E-013
 0.910940E-013
 0.910940E-013
 0.910940E-013
 0.910940E-013
 0.910940E-013
 0.910939E-013
 0.910939E-013
 0.910939E-013
 0.910939E-013
 0.910939E-013
 0.910939E-013
 0.910939E-013
 0.910939E-013
 0.910939E-013
 0.910939E-013
 0.910939E-013
 0.910938E-013
 0.910938E-013
 0.910938E-013
 0.910938E-013
 0.910938E-013
 0.910938E-013
 0.910938E-013
 0.910938E-013
 0.910938E-013
 0.910938E-013
 0.910938E-013
 0.910938E-013
 0.910938E-013
 0.910938E-013
 0.910938E-013
 0.910938E-013
 0.910939E-013
 0.910934E-013
 0.910968E-013
 0.910759E-013
 0.911825E-013
 0.907571E-013
 0.919999E-013
 0.921016E-013
 0.907183E-013
 0.911929E-013
 0.910737E-013
 0.910971E-013
 0.910934E-013
 0.910939E-013
 0.910938E-013
 0.910938E-013
 0.910938E-013
 0.910938E-013
 0.910938E-013
 0.910938E-013
 0.910938E-013
 0.910938E-013
 0.910938E-013
 0.910938E-013
 0.910938E-013
 0.910938E-013
 0.910938E-013
 0.910939E-013
 0.910939E-013
 0.910939E-013
 0.910939E-013
 0.910939E-013
 0.910939E-013
 0.910939E-013
 0.910939E-013
 0.910939E-013
 0.910939E-013
 0.910939E-013
 0.910940E-013
 0.910940E-013
 0.910940E-013
 0.910940E-013
 0.910940E-013
 0.910940E-013
 0.910941E-013
 0.910941E-013
 0.910941E-013
 0.910941E-013
 0.910941E-013
 0.910942E-013
 0.910942E-013
 0.910942E-013
 0.910942E-013
 0.910943E-013
 0.910943E-013
 0.910943E-013
 0.910943E-013
 0.910944E-013
 0.910944E-013
 0.910944E-013
 0.910944E-013
 0.910944E-013
 0.910945E-013
 0.910945E-013
 0.910945E-013
 0.910945E-013
 0.910945E-013
 0.910945E-013
 0.910945E-013
 0.910945E-013
 0.910945E-013
 0.910945E-013
 0.910945E-013
 0.910945E-013
 0.910945E-013
 0.910945E-013
 0.910945E-013
 0.910945E-013
 0.910945E-013
 0.910945E-013
 0.910944E-013
 0.910944E-013
 0.910944E-013
 0.910944E-013
 0.910944E-013
 0.910943E-013
 0.910943E-013
 0.910943E-013
 0.910943E-013
 0.910942E-013
 0.910942E-013
 0.910942E-013
 0.910942E-013
 0.910941E-013
 0.910941E-013
 0.910941E-013
 0.910941E-013
 0.910941E-013
 0.910940E-013
 0.910940E-013
 0.910940E-013
 0.910940E-013
 0.910940E-013
 0.910940E-013
 0.910939E-013
 0.910939E-013
 0.910939E-013
 0.910939E-013
 0.910939E-013
 0.910939E-013
 0.910939E-013
 0.910939E-013
 0.910939E-013
 0.910939E-013
 0.910939E-013
 0.910939E-013
 0.910938E-013
 0.910938E-013
 0.910938E-013
 0.910938E-013
 0.910938E-013
 0.910938E-013
 0.910938E-013
 0.910938E-013
 0.910938E-013
 0.910938E-013
 0.910938E-013
 0.910938E-013
 0.910939E-013
 0.910934E-013
 0.910971E-013
 0.910738E-013
 0.911929E-013
 0.907183E-013
 0.921016E-013
 0.922031E-013
 0.906795E-013
 0.912032E-013
 0.910716E-013
 0.910975E-013
 0.910933E-013
 0.910939E-013
 0.910938E-013
 0.910938E-013
 0.910938E-013
 0.910938E-013
 0.910938E-013
 0.910938E-013
 0.910938E-013
 0.910938E-013
 0.910938E-013
 0.910938E-013
 0.910938E-013
 0.910938E-013
 0.910939E-013
 0.910939E-013
 0.910939E-013
 0.910939E-013
 0.910939E-013
 0.910939E-013
 0.910939E-013
 0.910939E-013
 0.910939E-013
 0.910939E-013
 0.910939E-013
 0.910940E-013
 0.910940E-013
 0.910940E-013
 0.910940E-013
 0.910940E-013
 0.910940E-013
 0.910941E-013
 0.910941E-013
 0.910941E-013
 0.910941E-013
 0.910942E-013
 0.910942E-013
 0.910942E-013
 0.910943E-013
 0.910943E-013
 0.910943E-013
 0.910943E-013
 0.910944E-013
 0.910944E-013
 0.910944E-013
 0.910945E-013
 0.910945E-013
 0.910945E-013
 0.910945E-013
 0.910946E-013
 0.910946E-013
 0.910946E-013
 0.910946E-013
 0.910946E-013
 0.910946E-013
 0.910947E-013
 0.910947E-013
 0.910947E-013
 0.910947E-013
 0.910947E-013
 0.910947E-013
 0.910947E-013
 0.910947E-013
 0.910946E-013
 0.910946E-013
 0.910946E-013
 0.910946E-013
 0.910946E-013
 0.910946E-013
 0.910945E-013
 0.910945E-013
 0.910945E-013
 0.910945E-013
 0.910944E-013
 0.910944E-013
 0.910944E-013
 0.910943E-013
 0.910943E-013
 0.910943E-013
 0.910943E-013
 0.910942E-013
 0.910942E-013
 0.910942E-013
 0.910941E-013
 0.910941E-013
 0.910941E-013
 0.910941E-013
 0.910941E-013
 0.910940E-013
 0.910940E-013
 0.910940E-013
 0.910940E-013
 0.910940E-013
 0.910939E-013
 0.910939E-013
 0.910939E-013
 0.910939E-013
 0.910939E-013
 0.910939E-013
 0.910939E-013
 0.910939E-013
 0.910939E-013
 0.910939E-013
 0.910939E-013
 0.910939E-013
 0.910938E-013
 0.910938E-013
 0.910938E-013
 0.910938E-013
 0.910938E-013
 0.910938E-013
 0.910938E-013
 0.910938E-013
 0.910938E-013
 0.910938E-013
 0.910938E-013
 0.910939E-013
 0.910933E-013
 0.910975E-013
 0.910716E-013
 0.912032E-013
 0.906796E-013
 0.922030E-013
 0.923042E-013
 0.906409E-013
 0.912136E-013
 0.910695E-013
 0.910978E-013
 0.910933E-013
 0.910939E-013
 0.910938E-013
 0.910938E-013
 0.910938E-013
 0.910938E-013
 0.910938E-013
 0.910938E-013
 0.910938E-013
 0.910938E-013
 0.910938E-013
 0.910938E-013
 0.910938E-013
 0.910939E-013
 0.910939E-013
 0.910939E-013
 0.910939E-013
 0.910939E-013
 0.910939E-013
 0.910939E-013
 0.910939E-013
 0.910939E-013
 0.910939E-013
 0.910939E-013
 0.910940E-013
 0.910940E-013
 0.910940E-013
 0.910940E-013
 0.910940E-013
 0.910941E-013
 0.910941E-013
 0.910941E-013
 0.910941E-013
 0.910942E-013
 0.910942E-013
 0.910942E-013
 0.910943E-013
 0.910943E-013
 0.910943E-013
 0.910944E-013
 0.910944E-013
 0.910944E-013
 0.910945E-013
 0.910945E-013