# vtk DataFile Version 3.0
Solution data
ASCII
DATASET STRUCTURED_GRID
DIMENSIONS 128 128 1
POINTS 16384  double
      0.000004      0.000004      0.000000
      0.000012      0.000004      0.000000
      0.000020      0.000004      0.000000
      0.000027      0.000004      0.000000
      0.000035      0.000004      0.000000
      0.000043      0.000004      0.000000
      0.000051      0.000004      0.000000
      0.000059      0.000004      0.000000
      0.000066      0.000004      0.000000
      0.000074      0.000004      0.000000
      0.000082      0.000004      0.000000
      0.000090      0.000004      0.000000
      0.000098      0.000004      0.000000
      0.000105      0.000004      0.000000
      0.000113      0.000004      0.000000
      0.000121      0.000004      0.000000
      0.000129      0.000004      0.000000
      0.000137      0.000004      0.000000
      0.000145      0.000004      0.000000
      0.000152      0.000004      0.000000
      0.000160      0.000004      0.000000
      0.000168      0.000004      0.000000
      0.000176      0.000004      0.000000
      0.000184      0.000004      0.000000
      0.000191      0.000004      0.000000
      0.000199      0.000004      0.000000
      0.000207      0.000004      0.000000
      0.000215      0.000004      0.000000
      0.000223      0.000004      0.000000
      0.000230      0.000004      0.000000
      0.000238      0.000004      0.000000
      0.000246      0.000004      0.000000
      0.000254      0.000004      0.000000
      0.000262      0.000004      0.000000
      0.000270      0.000004      0.000000
      0.000277      0.000004      0.000000
      0.000285      0.000004      0.000000
      0.000293      0.000004      0.000000
      0.000301      0.000004      0.000000
      0.000309      0.000004      0.000000
      0.000316      0.000004      0.000000
      0.000324      0.000004      0.000000
      0.000332      0.000004      0.000000
      0.000340      0.000004      0.000000
      0.000348      0.000004      0.000000
      0.000355      0.000004      0.000000
      0.000363      0.000004      0.000000
      0.000371      0.000004      0.000000
      0.000379      0.000004      0.000000
      0.000387      0.000004      0.000000
      0.000395      0.000004      0.000000
      0.000402      0.000004      0.000000
      0.000410      0.000004      0.000000
      0.000418      0.000004      0.000000
      0.000426      0.000004      0.000000
      0.000434      0.000004      0.000000
      0.000441      0.000004      0.000000
      0.000449      0.000004      0.000000
      0.000457      0.000004      0.000000
      0.000465      0.000004      0.000000
      0.000473      0.000004      0.000000
      0.000480      0.000004      0.000000
      0.000488      0.000004      0.000000
      0.000496      0.000004      0.000000
      0.000504      0.000004      0.000000
      0.000512      0.000004      0.000000
      0.000520      0.000004      0.000000
      0.000527      0.000004      0.000000
      0.000535      0.000004      0.000000
      0.000543      0.000004      0.000000
      0.000551      0.000004      0.000000
      0.000559      0.000004      0.000000
      0.000566      0.000004      0.000000
      0.000574      0.000004      0.000000
      0.000582      0.000004      0.000000
      0.000590      0.000004      0.000000
      0.000598      0.000004      0.000000
      0.000605      0.000004      0.000000
      0.000613      0.000004      0.000000
      0.000621      0.000004      0.000000
      0.000629      0.000004      0.000000
      0.000637      0.000004      0.000000
      0.000645      0.000004      0.000000
      0.000652      0.000004      0.000000
      0.000660      0.000004      0.000000
      0.000668      0.000004      0.000000
      0.000676      0.000004      0.000000
      0.000684      0.000004      0.000000
      0.000691      0.000004      0.000000
      0.000699      0.000004      0.000000
      0.000707      0.000004      0.000000
      0.000715      0.000004      0.000000
      0.000723      0.000004      0.000000
      0.000730      0.000004      0.000000
      0.000738      0.000004      0.000000
      0.000746      0.000004      0.000000
      0.000754      0.000004      0.000000
      0.000762      0.000004      0.000000
      0.000770      0.000004      0.000000
      0.000777      0.000004      0.000000
      0.000785      0.000004      0.000000
      0.000793      0.000004      0.000000
      0.000801      0.000004      0.000000
      0.000809      0.000004      0.000000
      0.000816      0.000004      0.000000
      0.000824      0.000004      0.000000
      0.000832      0.000004      0.000000
      0.000840      0.000004      0.000000
      0.000848      0.000004      0.000000
      0.000855      0.000004      0.000000
      0.000863      0.000004      0.000000
      0.000871      0.000004      0.000000
      0.000879      0.000004      0.000000
      0.000887      0.000004      0.000000
      0.000895      0.000004      0.000000
      0.000902      0.000004      0.000000
      0.000910      0.000004      0.000000
      0.000918      0.000004      0.000000
      0.000926      0.000004      0.000000
      0.000934      0.000004      0.000000
      0.000941      0.000004      0.000000
      0.000949      0.000004      0.000000
      0.000957      0.000004      0.000000
      0.000965      0.000004      0.000000
      0.000973      0.000004      0.000000
      0.000980      0.000004      0.000000
      0.000988      0.000004      0.000000
      0.000996      0.000004      0.000000
      0.000004      0.000012      0.000000
      0.000012      0.000012      0.000000
      0.000020      0.000012      0.000000
      0.000027      0.000012      0.000000
      0.000035      0.000012      0.000000
      0.000043      0.000012      0.000000
      0.000051      0.000012      0.000000
      0.000059      0.000012      0.000000
      0.000066      0.000012      0.000000
      0.000074      0.000012      0.000000
      0.000082      0.000012      0.000000
      0.000090      0.000012      0.000000
      0.000098      0.000012      0.000000
      0.000105      0.000012      0.000000
      0.000113      0.000012      0.000000
      0.000121      0.000012      0.000000
      0.000129      0.000012      0.000000
      0.000137      0.000012      0.000000
      0.000145      0.000012      0.000000
      0.000152      0.000012      0.000000
      0.000160      0.000012      0.000000
      0.000168      0.000012      0.000000
      0.000176      0.000012      0.000000
      0.000184      0.000012      0.000000
      0.000191      0.000012      0.000000
      0.000199      0.000012      0.000000
      0.000207      0.000012      0.000000
      0.000215      0.000012      0.000000
      0.000223      0.000012      0.000000
      0.000230      0.000012      0.000000
      0.000238      0.000012      0.000000
      0.000246      0.000012      0.000000
      0.000254      0.000012      0.000000
      0.000262      0.000012      0.000000
      0.000270      0.000012      0.000000
      0.000277      0.000012      0.000000
      0.000285      0.000012      0.000000
      0.000293      0.000012      0.000000
      0.000301      0.000012      0.000000
      0.000309      0.000012      0.000000
      0.000316      0.000012      0.000000
      0.000324      0.000012      0.000000
      0.000332      0.000012      0.000000
      0.000340      0.000012      0.000000
      0.000348      0.000012      0.000000
      0.000355      0.000012      0.000000
      0.000363      0.000012      0.000000
      0.000371      0.000012      0.000000
      0.000379      0.000012      0.000000
      0.000387      0.000012      0.000000
      0.000395      0.000012      0.000000
      0.000402      0.000012      0.000000
      0.000410      0.000012      0.000000
      0.000418      0.000012      0.000000
      0.000426      0.000012      0.000000
      0.000434      0.000012      0.000000
      0.000441      0.000012      0.000000
      0.000449      0.000012      0.000000
      0.000457      0.000012      0.000000
      0.000465      0.000012      0.000000
      0.000473      0.000012      0.000000
      0.000480      0.000012      0.000000
      0.000488      0.000012      0.000000
      0.000496      0.000012      0.000000
      0.000504      0.000012      0.000000
      0.000512      0.000012      0.000000
      0.000520      0.000012      0.000000
      0.000527      0.000012      0.000000
      0.000535      0.000012      0.000000
      0.000543      0.000012      0.000000
      0.000551      0.000012      0.000000
      0.000559      0.000012      0.000000
      0.000566      0.000012      0.000000
      0.000574      0.000012      0.000000
      0.000582      0.000012      0.000000
      0.000590      0.000012      0.000000
      0.000598      0.000012      0.000000
      0.000605      0.000012      0.000000
      0.000613      0.000012      0.000000
      0.000621      0.000012      0.000000
      0.000629      0.000012      0.000000
      0.000637      0.000012      0.000000
      0.000645      0.000012      0.000000
      0.000652      0.000012      0.000000
      0.000660      0.000012      0.000000
      0.000668      0.000012      0.000000
      0.000676      0.000012      0.000000
      0.000684      0.000012      0.000000
      0.000691      0.000012      0.000000
      0.000699      0.000012      0.000000
      0.000707      0.000012      0.000000
      0.000715      0.000012      0.000000
      0.000723      0.000012      0.000000
      0.000730      0.000012      0.000000
      0.000738      0.000012      0.000000
      0.000746      0.000012      0.000000
      0.000754      0.000012      0.000000
      0.000762      0.000012      0.000000
      0.000770      0.000012      0.000000
      0.000777      0.000012      0.000000
      0.000785      0.000012      0.000000
[...]
POINT_DATA 16384
SCALARS rhoe double
LOOKUP_TABLE default
 0.911754E-013
 0.911699E-013
 0.912090E-013
 0.912461E-013
 0.912832E-013
 0.913204E-013
 0.913575E-013
 0.913946E-013
 0.914317E-013
 0.914688E-013
 0.915058E-013
 0.915428E-013
 0.915797E-013
 0.916167E-013
 0.916535E-013
 0.916903E-013
 0.917271E-013
 0.917637E-013
 0.918003E-013
 0.918367E-013
 0.918731E-013
 0.919093E-013
 0.919454E-013
 0.919813E-013
 0.920170E-013
 0.920525E-013
 0.920877E-013
 0.921228E-013
 0.921575E-013
 0.921919E-013
 0.922260E-013
 0.922597E-013
 0.922930E-013
 0.923259E-013
 0.923582E-013
 0.923901E-013
 0.924214E-013
 0.924522E-013
 0.924823E-013
 0.925117E-013
 0.925404E-013
 0.925684E-013
 0.925955E-013
 0.926218E-013
 0.926472E-013
 0.926717E-013
 0.926952E-013
 0.927177E-013
 0.927391E-013
 0.927594E-013
 0.927786E-013
 0.927965E-013
 0.928133E-013
 0.928288E-013
 0.928430E-013
 0.928558E-013
 0.928674E-013
 0.928775E-013
 0.928862E-013
 0.928935E-013
 0.928994E-013
 0.929038E-013
 0.929067E-013
 0.929082E-013
 0.929082E-013
 0.929068E-013
 0.929038E-013
 0.928994E-013
 0.928935E-013
 0.928862E-013
 0.928775E-013
 0.928674E-013
 0.928559E-013
 0.928430E-013
 0.928288E-013
 0.928133E-013
 0.927966E-013
 0.927786E-013
 0.927594E-013
 0.927391E-013
 0.927177E-013
 0.926953E-013
 0.926718E-013
 0.926473E-013
 0.926219E-013
 0.925956E-013
 0.925684E-013
 0.925405E-013
 0.925117E-013
 0.924823E-013
 0.924522E-013
 0.924215E-013
 0.923902E-013
 0.923583E-013
 0.923259E-013
 0.922930E-013
 0.922597E-013
 0.922260E-013
 0.921920E-013
 0.921575E-013
 0.921228E-013
 0.920878E-013
 0.920525E-013
 0.920170E-013
 0.919813E-013
 0.919454E-013
 0.919094E-013
 0.918731E-013
 0.918368E-013
 0.918003E-013
 0.917638E-013
 0.917271E-013
 0.916904E-013
 0.916536E-013
 0.916167E-013
 0.915798E-013
 0.915428E-013
 0.915058E-013
 0.914688E-013
 0.914317E-013
 0.913947E-013
 0.913575E-013
 0.913204E-013
 0.912833E-013
 0.912461E-013
 0.912090E-013
 0.911699E-013
 0.911754E-013
 0.911699E-013
 0.910869E-013
 0.910888E-013
 0.910870E-013
 0.910853E-013
 0.910836E-013
 0.910819E-013
 0.910802E-013
 0.910785E-013
 0.910769E-013
 0.910752E-013
 0.910735E-013
 0.910719E-013
 0.910702E-013
 0.910685E-013
 0.910669E-013
 0.910652E-013
 0.910636E-013
 0.910619E-013
 0.910603E-013
 0.910587E-013
 0.910571E-013
 0.910555E-013
 0.910539E-013
 0.910523E-013
 0.910508E-013
 0.910492E-013
 0.910477E-013
 0.910462E-013
 0.910447E-013
 0.910432E-013
 0.910417E-013
 0.910403E-013
 0.910389E-013
 0.910375E-013
 0.910362E-013
 0.910348E-013
 0.910335E-013
 0.910323E-013
 0.910311E-013
 0.910299E-013
 0.910287E-013
 0.910276E-013
 0.910265E-013
 0.910255E-013
 0.910245E-013
 0.910236E-013
 0.910227E-013
 0.910218E-013
 0.910210E-013
 0.910203E-013
 0.910196E-013
 0.910189E-013
 0.910183E-013
 0.910178E-013
 0.910173E-013
 0.910169E-013
 0.910165E-013
 0.910161E-013
 0.910159E-013
 0.910156E-013
 0.910155E-013
 0.910154E-013
 0.910153E-013
 0.910153E-013
 0.910154E-013
 0.910155E-013
 0.910156E-013
 0.910159E-013
 0.910161E-013
 0.910165E-013
 0.910169E-013
 0.910173E-013
 0.910178E-013
 0.910183E-013
 0.910189E-013
 0.910196E-013
 0.910203E-013
 0.910210E-013
 0.910218E-013
 0.910227E-013
 0.910236E-013
 0.910245E-013
 0.910255E-013
 0.910265E-013
 0.910276E-013
 0.910287E-013
 0.910299E-013
 0.910310E-013
 0.910323E-013
 0.910335E-013
 0.910348E-013
 0.910361E-013
 0.910375E-013
 0.910389E-013
 0.910403E-013
 0.910417E-013
 0.910432E-013
 0.910446E-013
 0.910461E-013
 0.910477E-013
 0.910492E-013
 0.910507E-013
 0.910523E-013
 0.910539E-013
 0.910555E-013
 0.910571E-013
 0.910587E-013
 0.910603E-013
 0.910619E-013
 0.910636E-013
 0.910652E-013
 0.910669E-013
 0.910685E-013
 0.910702E-013
 0.910718E-013
 0.910735E-013
 0.910752E-013
 0.910769E-013
 0.910785E-013
 0.910802E-013
 0.910819E-013
 0.910836E-013
 0.910853E-013
 0.910870E-013
 0.910888E-013
 0.910868E-013
 0.911699E-013
 0.912090E-013
 0.910888E-013
 0.910942E-013
 0.910941E-013
 0.910941E-013
 0.910942E-013
 0.910942E-013
 0.910943E-013
 0.910943E-013
 0.910944E-013
 0.910945E-013
 0.910945E-013
 0.910946E-013
 0.910946E-013
 0.910947E-013
 0.910948E-013
 0.910948E-013
 0.910949E-013
 0.910950E-013
 0.910951E-013
 0.910951E-013
 0.910952E-013
 0.910953E-013
 0.910954E-013
 0.910955E-013
 0.910956E-013
 0.910957E-013
 0.910958E-013
 0.910959E-013
 0.910960E-013
 0.910961E-013
 0.910962E-013
 0.910964E-013
 0.910965E-013
 0.910966E-013
 0.910968E-013
 0.910969E-013
 0.910971E-013
 0.910972E-013
 0.910974E-013
 0.910975E-013
 0.910977E-013
 0.910979E-013
 0.910980E-013
 0.910982E-013
 0.910984E-013
 0.910985E-013
 0.910987E-013
 0.910988E-013
 0.910990E-013
 0.910992E-013
 0.910993E-013
 0.910994E-013
 0.910996E-013
 0.910997E-013
 0.910998E-013
 0.910999E-013
 0.911000E-013
 0.911001E-013
 0.911002E-013
 0.911002E-013
 0.911003E-013
 0.911003E-013
 0.911003E-013
 0.911003E-013
 0.911003E-013
 0.911003E-013
 0.911002E-013
 0.911002E-013
 0.911001E-013
 0.911000E-013
 0.910999E-013
 0.910998E-013
 0.910997E-013
 0.910996E-013
 0.910994E-013
 0.910993E-013
 0.910992E-013
 0.910990E-013
 0.910988E-013
 0.910987E-013
 0.910985E-013
 0.910984E-013
 0.910982E-013
 0.910980E-013
 0.910979E-013
 0.910977E-013
 0.910975E-013
 0.910974E-013
 0.910972E-013
 0.910971E-013
 0.910969E-013
 0.910968E-013
 0.910966E-013
 0.910965E-013
 0.910963E-013
 0.910962E-013
 0.910961E-013
 0.910960E-013
 0.910959E-013
 0.910958E-013
 0.910957E-013
 0.910956E-013
 0.910955E-013
 0.910954E-013
 0.910953E-013
 0.910952E-013
 0.910951E-013
 0.910950E-013
 0.910950E-013
 0.910949E-013
 0.910948E-013
 0.910948E-013
 0.910947E-013
 0.910946E-013
 0.910946E-013
 0.910945E-013
 0.910945E-013
 0.910944E-013
 0.910943E-013
 0.910943E-013
 0.910942E-013
 0.910942E-013
 0.910941E-013
 0.910941E-013
 0.910942E-013
 0.910888E-013
 0.912090E-013
 0.912461E-013
 0.910870E-013
 0.910941E-013
 0.910938E-013
 0.910939E-013
 0.910939E-013
 0.910939E-013
 0.910939E-013
 0.910939E-013
 0.910939E-013
 0.910939E-013
 0.910939E-013
 0.910939E-013
 0.910939E-013
 0.910939E-013
 0.910939E-013
 0.910940E-013
 0.910940E-013
 0.910940E-013
 0.910940E-013
 0.910941E-013
 0.910941E-013
 0.910942E-013
 0.910942E-013
 0.910942E-013
 0.910943E-013
 0.910944E-013
 0.910944E-013
 0.910945E-013
 0.910946E-013
 0.910947E-013
 0.910948E-013
 0.910948E-013
 0.910950E-013
 0.910951E-013
 0.910952E-013
 0.910953E-013
 0.910954E-013
 0.910956E-013
 0.910957E-013
 0.910958E-013
 0.910960E-013
 0.910962E-013
 0.910963E-013
 0.910965E-013
 0.910966E-013
 0.910968E-013
 0.910969E-013
 0.910971E-013
 0.910973E-013
 0.910974E-013
 0.910976E-013
 0.910977E-013
 0.910978E-013
 0.910980E-013
 0.910981E-013
 0.910982E-013
 0.910983E-013
 0.910984E-013
 0.910984E-013
 0.910985E-013
 0.910985E-013
 0.910986E-013
 0.910986E-013
 0.910986E-013
 0.910986E-013
 0.910985E-013
 0.910985E-013
 0.910984E-013
 0.910984E-013
 0.910983E-013
 0.910982E-013
 0.910981E-013
 0.910980E-013
 0.910978E-013
 0.910977E-013
 0.910976E-013
 0.910974E-013
 0.910973E-013
 0.910971E-013
 0.910969E-013
 0.910968E-013
 0.910966E-013
 0.910965E-013
 0.910963E-013
 0.910961E-013
 0.910960E-013
 0.910958E-013
 0.910957E-013
 0.910956E-013
 0.910954E-013
 0.910953E-013
 0.910952E-013
 0.910951E-013
 0.910949E-013
 0.910948E-013
 0.910947E-013
 0.910947E-013
 0.910946E-013
 0.910945E-013
 0.910944E-013
 0.910944E-013
 0.910943E-013
 0.910942E-013
 0.910942E-013
 0.910941E-013
 0.910941E-013
 0.910941E-013
 0.910940E-013
 0.910940E-013
 0.910940E-013
 0.910940E-013
 0.910939E-013
 0.910939E-013
 0.910939E-013
 0.910939E-013
 0.910939E-013
 0.910939E-013
 0.910939E-013
 0.910939E-013
 0.910939E-013
 0.910939E-013
 0.910939E-013
 0.910938E-013
 0.910938E-013
 0.910941E-013
 0.910870E-013
 0.912461E-013
 0.912832E-013
 0.910853E-013
 0.910941E-013
 0.910939E-013
 0.910939E-013
 0.910939E-013
 0.910939E-013
 0.910939E-013
 0.910939E-013
 0.910939E-013
 0.910939E-013
 0.910939E-013
 0.910939E-013
 0.910940E-013
 0.910940E-013
 0.910940E-013
 0.910940E-013
 0.910940E-013
 0.910941E-013
 0.910941E-013
 0.910942E-013
 0.910942E-013
 0.910942E-013
 0.910943E-013
 0.910944E-013
 0.910944E-013
 0.910945E-013
 0.910946E-013
 0.910947E-013
 0.910948E-013
 0.910949E-013
 0.910950E-013
 0.910951E-013
 0.910952E-013
 0.910954E-013
 0.910955E-013
 0.910956E-013
 0.910958E-013
 0.910960E-013
 0.910961E-013
 0.910963E-013
 0.910965E-013
 0.910967E-013
 0.910969E-013
 0.910971E-013
 0.910972E-013
 0.910974E-013
 0.910976E-013
 0.910978E-013
 0.910980E-013
 0.910982E-013
 0.910984E-013
 0.910985E-013
 0.910987E-013
 0.910989E-013
 0.910990E-013
 0.910991E-013
 0.910992E-013
 0.910993E-013
 0.910994E-013
 0.910995E-013
 0.910995E-013
 0.910996E-013
 0.910996E-013
 0.910996E-013
 0.910996E-013
 0.910995E-013
 0.910995E-013
 0.910994E-013
 0.910993E-013
 0.910992E-013
 0.910991E-013
 0.910990E-013
 0.910989E-013
 0.910987E-013
 0.910985E-013
 0.910984E-013
 0.910982E-013
 0.910980E-013
 0.910978E-013
 0.910976E-013
 0.910974E-013
 0.910972E-013
 0.910971E-013
 0.910969E-013
 0.910967E-013
 0.910965E-013
 0.910963E-013
 0.910961E-013
 0.910960E-013
 0.910958E-013
 0.910956E-013
 0.910955E-013
 0.910954E-013
 0.910952E-013
 0.910951E-013
 0.910950E-013
 0.910949E-013
 0.910948E-013
 0.910947E-013
 0.910946E-013
 0.910945E-013
 0.910944E-013
 0.910944E-013
 0.910943E-013
 0.910942E-013
 0.910942E-013
 0.910941E-013
 0.910941E-013
 0.910941E-013
 0.910940E-013
 0.910940E-013
 0.910940E-013
 0.910940E-013
 0.910939E-013
 0.910939E-013
 0.910939E-013
 0.910939E-013
 0.910939E-013
 0.910939E-013
 0.910939E-013
 0.910939E-013
 0.910939E-013
 0.910939E-013
 0.910938E-013
 0.910941E-013
 0.910853E-013
 0.912833E-013
 0.913204E-013
 0.910836E-013
 0.910942E-013
 0.910939E-013
 0.910939E-013
 0.910939E-013
 0.910939E-013
 0.910939E-013
 0.910939E-013
 0.910939E-013
 0.910939E-013
 0.910939E-013
 0.910940E-013
 0.910940E-013
 0.910940E-013
 0.910940E-013
 0.910941E-013
 0.910941E-013
 0.910941E-013
 0.910942E-013
 0.910942E-013
 0.910943E-013
 0.910943E-013
 0.910944E-013
 0.910945E-013
 0.910945E-013
 0.910946E-013
 0.910947E-013
 0.910948E-013
 0.910950E-013
 0.910951E-013
 0.910952E-013
 0.910953E-013
 0.910955E-013
 0.910957E-013
 0.910958E-013
 0.910960E-013
 0.910962E-013
 0.910964E-013
 0.910966E-013
 0.910968E-013
 0.910970E-013
 0.910972E-013
 0.910975E-013
 0.910977E-013
 0.910979E-013
 0.910982E-013
 0.910984E-013
 0.910986E-013
 0.910988E-013
 0.910991E-013
 0.910993E-013
 0.910995E-013
 0.910997E-013
 0.910998E-013
 0.911000E-013
 0.911002E-013
 0.911003E-013
 0.911004E-013
 0.911005E-013
 0.911006E-013
 0.911007E-013
 0.911007E-013
 0.911007E-013
 0.911007E-013
 0.911007E-013
 0.911007E-013
 0.911006E-013
 0.911005E-013
 0.911004E-013
 0.911003E-013
 0.911002E-013
 0.911000E-013
 0.910998E-013
 0.910997E-013
 0.910995E-013
 0.910993E-013
 0.910991E-013
 0.910988E-013
 0.910986E-013
 0.910984E-013
 0.910981E-013
 0.910979E-013
 0.910977E-013
 0.910975E-013
 0.910972E-013
 0.910970E-013
 0.910968E-013
 0.910966E-013
 0.910964E-013
 0.910962E-013
 0.910960E-013
 0.910958E-013
 0.910956E-013
 0.910955E-013
 0.910953E-013
 0.910952E-013
 0.910951E-013
 0.910949E-013
 0.910948E-013
 0.910947E-013
 0.910946E-013
 0.910945E-013
 0.910945E-013
 0.910944E-013
 0.910943E-013
 0.910943E-013
 0.910942E-013
 0.910942E-013
 0.910941E-013
 0.910941E-013
 0.910940E-013
 0.910940E-013
 0.910940E-013
 0.910940E-013
 0.910939E-013
 0.910939E-013
 0.910939E-013
 0.910939E-013
 0.910939E-013
 0.910939E-013
 0.910939E-013
 0.910939E-013
 0.910939E-013
 0.910939E-013
 0.910942E-013
 0.910836E-013
 0.913204E-013
 0.913575E-013
 0.910819E-013
 0.910942E-013
 0.910939E-013
 0.910939E-013
 0.910939E-013
 0.910939E-013
 0.910939E-013
 0.910939E-013
 0.910939E-013
 0.910939E-013
 0.910940E-013
 0.910940E-013
 0.910940E-013
 0.910940E-013
 0.910941E-013
 0.910941E-013
 0.910941E-013
 0.910942E-013
 0.910942E-013
 0.910943E-013
 0.910944E-013
 0.910944E-013
 0.910945E-013
 0.910946E-013
 0.910947E-013
 0.910948E-013
 0.910949E-013
 0.910950E-013
 0.910952E-013
 0.910953E-013
 0.910955E-013
 0.910956E-013
 0.910958E-013
 0.910960E-013
 0.910962E-013
 0.910964E-013
 0.910966E-013
 0.910969E-013
 0.910971E-013
 0.910974E-013
 0.910976E-013
 0.910979E-013
 0.910982E-013
 0.910984E-013
 0.910987E-013
 0.910990E-013
 0.910993E-013
 0.910995E-013
 0.910998E-013
 0.911001E-013
 0.911003E-013
 0.911006E-013
 0.911008E-013
 0.911010E-013
 0.911012E-013
 0.911014E-013
 0.911016E-013
 0.911017E-013
 0.911018E-013
 0.911019E-013
 0.911020E-013
 0.911020E-013
 0.911021E-013
 0.911021E-013
 0.911020E-013
 0.911020E-013
 0.911019E-013
 0.911018E-013
 0.911017E-013
 0.911016E-013
 0.911014E-013
 0.911012E-013
 0.911010E-013
 0.911008E-013
 0.911006E-013
 0.911003E-013
 0.911001E-013
 0.910998E-013
 0.910995E-013
 0.910993E-013
 0.910990E-013
 0.910987E-013
 0.910984E-013
 0.910982E-013
 0.910979E-013
 0.910976E-013
 0.910974E-013
 0.910971E-013
 0.910969E-013
 0.910966E-013
 0.910964E-013
 0.910962E-013
 0.910960E-013
 0.910958E-013
 0.910956E-013
 0.910955E-013
 0.910953E-013
 0.910952E-013
 0.910950E-013
 0.910949E-013
 0.910948E-013
 0.910947E-013
 0.910946E-013
 0.910945E-013
 0.910944E-013
 0.910943E-013
 0.910943E-013
 0.910942E-013
 0.910942E-013
 0.910941E-013
 0.910941E-013
 0.910941E-013
 0.910940E-013
 0.910940E-013
 0.910940E-013
 0.910940E-013
 0.910939E-013
 0.910939E-013
 0.910939E-013
 0.910939E-013
 0.910939E-013
 0.910939E-013
 0.910939E-013
 0.910939E-013
 0.910942E-013
 0.910819E-013
 0.913575E-013
 0.913946E-013
 0.910802E-013
 0.910943E-013
 0.910939E-013
 0.910939E-013
 0.910939E-013
 0.910939E-013
 0.910939E-013
 0.910939E-013
 0.910939E-013
 0.910940E-013
 0.910940E-013
 0.910940E-013
 0.910940E-013
 0.910941E-013
 0.910941E-013
 0.910941E-013
 0.910942E-013
 0.910942E-013
 0.910943E-013
 0.910944E-013
 0.910945E-013
 0.910945E-013
 0.910946E-013
 0.910947E-013
 0.910948E-013
 0.910950E-013
 0.910951E-013
 0.910953E-013
 0.910954E-013
 0.910956E-013
 0.910958E-013
 0.910960E-013
 0.910962E-013
 0.910964E-013
 0.910967E-013
 0.910969E-013
 0.910972E-013
 0.910975E-013
 0.910977E-013
 0.910980E-013
 0.910983E-013
 0.910987E-013
 0.910990E-013
 0.910993E-013
 0.910996E-013
 0.911000E-013
 0.911003E-013
 0.911006E-013
 0.911009E-013
 0.911012E-013
 0.911015E-013
 0.911018E-013
 0.911021E-013
 0.911024E-013
 0.911026E-013
 0.911028E-013
 0.911030E-013
 0.911032E-013
 0.911033E-013
 0.911035E-013
 0.911035E-013
 0.911036E-013
 0.911036E-013
 0.911036E-013
 0.911036E-013
 0.911035E-013
 0.911034E-013
 0.911033E-013
 0.911032E-013
 0.911030E-013
 0.911028E-013
 0.911026E-013
 0.911024E-013
 0.911021E-013
 0.911018E-013
 0.911015E-013
 0.911012E-013
 0.911009E-013
 0.911006E-013
 0.911003E-013
 0.911000E-013
 0.910996E-013
 0.910993E-013
 0.910990E-013
 0.910987E-013
 0.910983E-013
 0.910980E-013
 0.910977E-013
 0.910974E-013
 0.910972E-013
 0.910969E-013
 0.910967E-013
 0.910964E-013
 0.910962E-013
 0.910960E-013
 0.910958E-013
 0.910956E-013
 0.910954E-013
 0.910952E-013
 0.910951E-013
 0.910950E-013
 0.910948E-013
 0.910947E-013
 0.910946E-013
 0.910945E-013
 0.910944E-013
 0.910944E-013
 0.910943E-013
 0.910942E-013
 0.910942E-013
 0.910941E-013
 0.910941E-013
 0.910941E-013
 0.910940E-013
 0.910940E-013
 0.910940E-013
 0.910940E-013
 0.910939E-013
 0.910939E-013
 0.910939E-013
 0.910939E-013
 0.910939E-013
 0.910939E-013
 0.910939E-013
 0.910943E-013
 0.910802E-013
 0.913947E-013
 0.914317E-013
 0.910785E-013
 0.910943E-013
 0.910939E-013
 0.910939E-013
 0.910939E-013
 0.910939E-013
 0.910939E-013
 0.910939E-013
 0.910940E-013
 0.910940E-013
 0.910940E-013
 0.910940E-013
 0.910941E-013
 0.910941E-013
 0.910942E-013
 0.910942E-013
 0.910943E-013
 0.910943E-013
 0.910944E-013
 0.910945E-013
 0.910946E-013
 0.910947E-013
 0.910948E-013
 0.910949E-013
 0.910950E-013
 0.910952E-013
 0.910953E-013
 0.910955E-013
 0.910957E-013
 0.910959E-013
 0.910961E-013
 0.910964E-013
 0.910966E-013
 0.910969E-013
 0.910972E-013
 0.910975E-013
 0.910978E-013
 0.910981E-013
 0.910985E-013
 0.910988E-013
 0.910992E-013
 0.910996E-013
 0.910999E-013
 0.911003E-013
 0.911007E-013
 0.911011E-013
 0.911015E-013
 0.911019E-013
 0.911023E-013
 0.911026E-013
 0.911030E-013
 0.911033E-013
 0.911037E-013
 0.911040E-013
 0.911042E-013
 0.911045E-013
 0.911047E-013
 0.911049E-013
 0.911051E-013
 0.911052E-013
 0.911053E-013
 0.911054E-013
 0.911055E-013
 0.911055E-013
 0.911054E-013
 0.911053E-013
 0.911052E-013
 0.911051E-013
 0.911049E-013
 0.911047E-013
 0.911045E-013
 0.911042E-013
 0.911040E-013
 0.911036E-013
 0.911033E-013
 0.911030E-013
 0.911026E-013
 0.911023E-013
 0.911019E-013
 0.911015E-013
 0.911011E-013
 0.911007E-013
 0.911003E-013
 0.910999E-013
 0.910996E-013
 0.910992E-013
 0.910988E-013
 0.910985E-013
 0.910981E-013
 0.910978E-013
 0.910975E-013
 0.910972E-013
 0.910969E-013
 0.910966E-013
 0.910964E-013
 0.910961E-013
 0.910959E-013
 0.910957E-013
 0.910955E-013
 0.910953E-013
 0.910952E-013
 0.910950E-013
 0.910949E-013
 0.910948E-013
 0.910947E-013
 0.910946E-013
 0.910945E-013
 0.910944E-013
 0.910943E-013
 0.910943E-013
 0.910942E-013
 0.910941E-013
 0.910941E-013
 0.910941E-013
 0.910940E-013
 0.910940E-013
 0.910940E-013
 0.910940E-013
 0.910939E-013
 0.910939E-013
 0.910939E-013
 0.910939E-013
 0.910939E-013
 0.910939E-013
 0.910943E-013
 0.910785E-013
 0.914317E-013
 0.914688E-013
 0.910769E-013
 0.910944E-013
 0.910939E-013
 0.910939E-013
 0.910939E-013
 0.910939E-013
 0.910939E-013
 0.910940E-013
 0.910940E-013
 0.910940E-013
 0.910940E-013
 0.910941E-013
 0.910941E-013
 0.910942E-013
 0.910942E-013
 0.910943E-013
 0.910943E-013
 0.910944E-013
 0.910945E-013
 0.910946E-013
 0.910947E-013
 0.910948E-013
 0.910949E-013
 0.910951E-013
 0.910953E-013
 0.910954E-013
 0.910956E-013
 0.910958E-013
 0.910961E-013
 0.910963E-013
 0.910966E-013
 0.910968E-013
 0.910971E-013
 0.910975E-013
 0.910978E-013
 0.910982E-013
 0.910985E-013
 0.910989E-013
 0.910993E-013
 0.910997E-013
 0.911002E-013
 0.911006E-013
 0.911011E-013
 0.911015E-013
 0.911020E-013
 0.911024E-013
 0.911029E-013
 0.911033E-013
 0.911038E-013
 0.911042E-013
 0.911047E-013
 0.911051E-013
 0.911054E-013
 0.911058E-013
 0.911061E-013
 0.911064E-013
 0.911067E-013
 0.911070E-013
 0.911072E-013
 0.911073E-013
 0.911074E-013
 0.911075E-013
 0.911076E-013
 0.911076E-013
 0.911075E-013
 0.911074E-013
 0.911073E-013
 0.911072E-013
 0.911070E-013
 0.911067E-013
 0.911064E-013
 0.911061E-013
 0.911058E-013
 0.911054E-013
 0.911051E-013
 0.911047E-013
 0.911042E-013
 0.911038E-013
 0.911033E-013
 0.911029E-013
 0.911024E-013
 0.911020E-013
 0.911015E-013
 0.911011E-013
 0.911006E-013
 0.911002E-013
 0.910997E-013
 0.910993E-013
 0.910989E-013
 0.910985E-013
 0.910981E-013
 0.910978E-013
 0.910975E-013
 0.910971E-013
 0.910968E-013
 0.910966E-013
 0.910963E-013
 0.910960E-013
 0.910958E-013
 0.910956E-013
 0.910954E-013
 0.910952E-013
 0.910951E-013
 0.910949E-013
 0.910948E-013
 0.910947E-013
 0.910946E-013
 0.910945E-013
 0.910944E-013
 0.910943E-013
 0.910943E-013
 0.910942E-013
 0.910942E-013
 0.910941E-013
 0.910941E-013
 0.910940E-013
 0.910940E-013
 0.910940E-013
 0.910940E-013
 0.910939E-013
 0.910939E-013
 0.910939E-013
 0.910939E-013
 0.910939E-013
 0.910944E-013
 0.910769E-013
 0.914688E-013
 0.915058E-013
 0.910752E-013
 0.910945E-013
 0.910939E-013
 0.910939E-013
 0.910939E-013
 0.910939E-013
 0.910940E-013
 0.910940E-013
 0.910940E-013
 0.910940E-013
 0.910941E-013
 0.910941E-013
 0.910942E-013
 0.910942E-013
 0.910943E-013
 0.910943E-013
 0.910944E-013
 0.910945E-013
 0.910946E-013
 0.910947E-013
 0.910949E-013
 0.910950E-013
 0.910951E-013
 0.910953E-013
 0.910955E-013
 0.910957E-013
 0.910959E-013
 0.910962E-013
 0.910965E-013
 0.910967E-013
 0.910970E-013
 0.910974E-013
 0.910977E-013
 0.910981E-013
 0.910985E-013
 0.910989E-013
 0.910994E-013
 0.910998E-013
 0.911003E-013
 0.911008E-013
 0.911013E-013
 0.911018E-013
 0.911023E-013
 0.911029E-013
 0.911034E-013
 0.911040E-013
 0.911045E-013
 0.911051E-013