# vtk DataFile Version 3.0
Solution data
ASCII
DATASET STRUCTURED_GRID
DIMENSIONS 128 128 1
POINTS 16384  double
      0.000004      0.000004      0.000000
      0.000012      0.000004      0.000000
      0.000020      0.000004      0.000000
      0.000027      0.000004      0.000000
      0.000035      0.000004      0.000000
      0.000043      0.000004      0.000000
      0.000051      0.000004      0.000000
      0.000059      0.000004      0.000000
      0.000066      0.000004      0.000000
      0.000074      0.000004      0.000000
      0.000082      0.000004      0.000000
      0.000090      0.000004      0.000000
      0.000098      0.000004      0.000000
      0.000105      0.000004      0.000000
      0.000113      0.000004      0.000000
      0.000121      0.000004      0.000000
      0.000129      0.000004      0.000000
      0.000137      0.000004      0.000000
      0.000145      0.000004      0.000000
      0.000152      0.000004      0.000000
      0.000160      0.000004      0.000000
      0.000168      0.000004      0.000000
      0.000176      0.000004      0.000000
      0.000184      0.000004      0.000000
      0.000191      0.000004      0.000000
      0.000199      0.000004      0.000000
      0.000207      0.000004      0.000000
      0.000215      0.000004      0.000000
      0.000223      0.000004      0.000000
      0.000230      0.000004      0.000000
      0.000238      0.000004      0.000000
      0.000246      0.000004      0.000000
      0.000254      0.000004      0.000000
      0.000262      0.000004      0.000000
      0.000270      0.000004      0.000000
      0.000277      0.000004      0.000000
      0.000285      0.000004      0.000000
      0.000293      0.000004      0.000000
      0.000301      0.000004      0.000000
      0.000309      0.000004      0.000000
      0.000316      0.000004      0.000000
      0.000324      0.000004      0.000000
      0.000332      0.000004      0.000000
      0.000340      0.000004      0.000000
      0.000348      0.000004      0.000000
      0.000355      0.000004      0.000000
      0.000363      0.000004      0.000000
      0.000371      0.000004      0.000000
      0.000379      0.000004      0.000000
      0.000387      0.000004      0.000000
      0.000395      0.000004      0.000000
      0.000402      0.000004      0.000000
      0.000410      0.000004      0.000000
      0.000418      0.000004      0.000000
      0.000426      0.000004      0.000000
      0.000434      0.000004      0.000000
      0.000441      0.000004      0.000000
      0.000449      0.000004      0.000000
      0.000457      0.000004      0.000000
      0.000465      0.000004      0.000000
      0.000473      0.000004      0.000000
      0.000480      0.000004      0.000000
      0.000488      0.000004      0.000000
      0.000496      0.000004      0.000000
      0.000504      0.000004      0.000000
      0.000512      0.000004      0.000000
      0.000520      0.000004      0.000000
      0.000527      0.000004      0.000000
      0.000535      0.000004      0.000000
      0.000543      0.000004      0.000000
      0.000551      0.000004      0.000000
      0.000559      0.000004      0.000000
      0.000566      0.000004      0.000000
      0.000574      0.000004      0.000000
      0.000582      0.000004      0.000000
      0.000590      0.000004      0.000000
      0.000598      0.000004      0.000000
      0.000605      0.000004      0.000000
      0.000613      0.000004      0.000000
      0.000621      0.000004      0.000000
      0.000629      0.000004      0.000000
      0.000637      0.000004      0.000000
      0.000645      0.000004      0.000000
      0.000652      0.000004      0.000000
      0.000660      0.000004      0.000000
      0.000668      0.000004      0.000000
      0.000676      0.000004      0.000000
      0.000684      0.000004      0.000000
      0.000691      0.000004      0.000000
      0.000699      0.000004      0.000000
      0.000707      0.000004      0.000000
      0.000715      0.000004      0.000000
      0.000723      0.000004      0.000000
      0.000730      0.000004      0.000000
      0.000738      0.000004      0.000000
      0.000746      0.000004      0.000000
      0.000754      0.000004      0.000000
      0.000762      0.000004      0.000000
      0.000770      0.000004      0.000000
      0.000777      0.000004      0.000000
      0.000785      0.000004      0.000000
      0.000793      0.000004      0.000000
      0.000801      0.000004      0.000000
      0.000809      0.000004      0.000000
      0.000816      0.000004      0.000000
      0.000824      0.000004      0.000000
      0.000832      0.000004      0.000000
      0.000840      0.000004      0.000000
      0.000848      0.000004      0.000000
      0.000855      0.000004      0.000000
      0.000863      0.000004      0.000000
      0.000871      0.000004      0.000000
      0.000879      0.000004      0.000000
      0.000887      0.000004      0.000000
      0.000895      0.000004      0.000000
      0.000902      0.000004      0.000000
      0.000910      0.000004      0.000000
      0.000918      0.000004      0.000000
      0.000926      0.000004      0.000000
      0.000934      0.000004      0.000000
      0.000941      0.000004      0.000000
      0.000949      0.000004      0.000000
      0.000957      0.000004      0.000000
      0.000965      0.000004      0.000000
      0.000973      0.000004      0.000000
      0.000980      0.000004      0.000000
      0.000988      0.000004      0.000000
      0.000996      0.000004      0.000000
      0.000004      0.000012      0.000000
      0.000012      0.000012      0.000000
      0.000020      0.000012      0.000000
      0.000027      0.000012      0.000000
      0.000035      0.000012      0.000000
      0.000043      0.000012      0.000000
      0.000051      0.000012      0.000000
      0.000059      0.000012      0.000000
      0.000066      0.000012      0.000000
      0.000074      0.000012      0.000000
      0.000082      0.000012      0.000000
      0.000090      0.000012      0.000000
      0.000098      0.000012      0.000000
      0.000105      0.000012      0.000000
      0.000113      0.000012      0.000000
      0.000121      0.000012      0.000000
      0.000129      0.000012      0.000000
      0.000137      0.000012      0.000000
      0.000145      0.000012      0.000000
      0.000152      0.000012      0.000000
      0.000160      0.000012      0.000000
      0.000168      0.000012      0.000000
      0.000176      0.000012      0.000000
      0.000184      0.000012      0.000000
      0.000191      0.000012      0.000000
      0.000199      0.000012      0.000000
      0.000207      0.000012      0.000000
      0.000215      0.000012      0.000000
      0.000223      0.000012      0.000000
      0.000230      0.000012      0.000000
      0.000238      0.000012      0.000000
      0.000246      0.000012      0.000000
      0.000254      0.000012      0.000000
      0.000262      0.000012      0.000000
      0.000270      0.000012      0.000000
      0.000277      0.000012      0.000000
      0.000285      0.000012      0.000000
      0.000293      0.000012      0.000000
      0.000301      0.000012      0.000000
      0.000309      0.000012      0.000000
      0.000316      0.000012      0.000000
      0.000324      0.000012      0.000000
      0.000332      0.000012      0.000000
      0.000340      0.000012      0.000000
      0.000348      0.000012      0.000000
      0.000355      0.000012      0.000000
      0.000363      0.000012      0.000000
      0.000371      0.000012      0.000000
      0.000379      0.000012      0.000000
      0.000387      0.000012      0.000000
      0.000395      0.000012      0.000000
      0.000402      0.000012      0.000000
      0.000410      0.000012      0.000000
      0.000418      0.000012      0.000000
      0.000426      0.000012      0.000000
      0.000434      0.000012      0.000000
      0.000441      0.000012      0.000000
      0.000449      0.000012      0.000000
      0.000457      0.000012      0.000000
      0.000465      0.000012      0.000000
      0.000473      0.000012      0.000000
      0.000480      0.000012      0.000000
      0.000488      0.000012      0.000000
      0.000496      0.000012      0.000000
      0.000504      0.000012      0.000000
      0.000512      0.000012      0.000000
      0.000520      0.000012      0.000000
      0.000527      0.000012      0.000000
      0.000535      0.000012      0.000000
      0.000543      0.000012      0.000000
      0.000551      0.000012      0.000000
      0.000559      0.000012      0.000000
      0.000566      0.000012      0.000000
      0.000574      0.000012      0.000000
      0.000582      0.000012      0.000000
      0.000590      0.000012      0.000000
      0.000598      0.000012      0.000000
      0.000605      0.000012      0.000000
      0.000613      0.000012      0.000000
      0.000621      0.000012      0.000000
      0.000629      0.000012      0.000000
      0.000637      0.000012      0.000000
      0.000645      0.000012      0.000000
      0.000652      0.000012      0.000000
      0.000660      0.000012      0.000000
      0.000668      0.000012      0.000000
      0.000676      0.000012      0.000000
      0.000684      0.000012      0.000000
      0.000691      0.000012      0.000000
      0.000699      0.000012      0.000000
      0.000707      0.000012      0.000000
      0.000715      0.000012      0.000000
      0.000723      0.000012      0.000000
      0.000730      0.000012      0.000000
      0.000738      0.000012      0.000000
      0.000746      0.000012      0.000000
      0.000754      0.000012      0.000000
      0.000762      0.000012      0.000000
      0.000770      0.000012      0.000000
      0.000777      0.000012      0.000000
      0.000785      0.000012      0.000000
[...]
POINT_DATA 16384
SCALARS rhoe double
LOOKUP_TABLE default
 0.916673E-013
 0.912146E-013
 0.915516E-013
 0.915265E-013
 0.916449E-013
 0.917133E-013
 0.917967E-013
 0.918757E-013
 0.919555E-013
 0.920349E-013
 0.921141E-013
 0.921929E-013
 0.922715E-013
 0.923498E-013
 0.924278E-013
 0.925055E-013
 0.925828E-013
 0.926598E-013
 0.927363E-013
 0.928124E-013
 0.928881E-013
 0.929632E-013
 0.930379E-013
 0.931119E-013
 0.931854E-013
 0.932582E-013
 0.933303E-013
 0.934017E-013
 0.934723E-013
 0.935420E-013
 0.936109E-013
 0.936788E-013
 0.937456E-013
 0.938114E-013
 0.938761E-013
 0.939396E-013
 0.940017E-013
 0.940626E-013
 0.941220E-013
 0.941799E-013
 0.942363E-013
 0.942910E-013
 0.943440E-013
 0.943953E-013
 0.944447E-013
 0.944921E-013
 0.945376E-013
 0.945809E-013
 0.946222E-013
 0.946612E-013
 0.946979E-013
 0.947323E-013
 0.947644E-013
 0.947939E-013
 0.948210E-013
 0.948455E-013
 0.948673E-013
 0.948866E-013
 0.949032E-013
 0.949170E-013
 0.949281E-013
 0.949365E-013
 0.949421E-013
 0.949448E-013
 0.949448E-013
 0.949421E-013
 0.949365E-013
 0.949281E-013
 0.949170E-013
 0.949032E-013
 0.948866E-013
 0.948673E-013
 0.948455E-013
 0.948210E-013
 0.947939E-013
 0.947644E-013
 0.947324E-013
 0.946980E-013
 0.946612E-013
 0.946222E-013
 0.945809E-013
 0.945376E-013
 0.944921E-013
 0.944447E-013
 0.943953E-013
 0.943440E-013
 0.942910E-013
 0.942363E-013
 0.941799E-013
 0.941220E-013
 0.940626E-013
 0.940017E-013
 0.939396E-013
 0.938761E-013
 0.938115E-013
 0.937457E-013
 0.936788E-013
 0.936109E-013
 0.935420E-013
 0.934723E-013
 0.934017E-013
 0.933303E-013
 0.932582E-013
 0.931854E-013
 0.931119E-013
 0.930379E-013
 0.929632E-013
 0.928881E-013
 0.928124E-013
 0.927363E-013
 0.926598E-013
 0.925828E-013
 0.925055E-013
 0.924279E-013
 0.923499E-013
 0.922715E-013
 0.921929E-013
 0.921141E-013
 0.920349E-013
 0.919555E-013
 0.918757E-013
 0.917967E-013
 0.917133E-013
 0.916449E-013
 0.915265E-013
 0.915516E-013
 0.912146E-013
 0.916673E-013
 0.912146E-013
 0.907591E-013
 0.909420E-013
 0.907744E-013
 0.907651E-013
 0.906958E-013
 0.906463E-013
 0.905913E-013
 0.905379E-013
 0.904843E-013
 0.904309E-013
 0.903778E-013
 0.903248E-013
 0.902720E-013
 0.902195E-013
 0.901671E-013
 0.901150E-013
 0.900631E-013
 0.900115E-013
 0.899602E-013
 0.899092E-013
 0.898586E-013
 0.898083E-013
 0.897583E-013
 0.897088E-013
 0.896597E-013
 0.896111E-013
 0.895629E-013
 0.895153E-013
 0.894683E-013
 0.894218E-013
 0.893760E-013
 0.893309E-013
 0.892864E-013
 0.892428E-013
 0.892000E-013
 0.891580E-013
 0.891169E-013
 0.890768E-013
 0.890376E-013
 0.889996E-013
 0.889626E-013
 0.889268E-013
 0.888921E-013
 0.888588E-013
 0.888267E-013
 0.887960E-013
 0.887666E-013
 0.887388E-013
 0.887124E-013
 0.886875E-013
 0.886643E-013
 0.886426E-013
 0.886226E-013
 0.886043E-013
 0.885878E-013
 0.885729E-013
 0.885599E-013
 0.885487E-013
 0.885394E-013
 0.885318E-013
 0.885262E-013
 0.885224E-013
 0.885205E-013
 0.885205E-013
 0.885224E-013
 0.885262E-013
 0.885318E-013
 0.885394E-013
 0.885487E-013
 0.885599E-013
 0.885730E-013
 0.885878E-013
 0.886043E-013
 0.886226E-013
 0.886426E-013
 0.886643E-013
 0.886875E-013
 0.887124E-013
 0.887388E-013
 0.887666E-013
 0.887960E-013
 0.888267E-013
 0.888588E-013
 0.888921E-013
 0.889268E-013
 0.889626E-013
 0.889996E-013
 0.890376E-013
 0.890768E-013
 0.891169E-013
 0.891580E-013
 0.892000E-013
 0.892428E-013
 0.892865E-013
 0.893309E-013
 0.893760E-013
 0.894218E-013
 0.894683E-013
 0.895153E-013
 0.895629E-013
 0.896111E-013
 0.896597E-013
 0.897088E-013
 0.897583E-013
 0.898083E-013
 0.898586E-013
 0.899093E-013
 0.899603E-013
 0.900116E-013
 0.900632E-013
 0.901150E-013
 0.901671E-013
 0.902195E-013
 0.902720E-013
 0.903248E-013
 0.903778E-013
 0.904309E-013
 0.904843E-013
 0.905379E-013
 0.905913E-013
 0.906463E-013
 0.906958E-013
 0.907651E-013
 0.907744E-013
 0.909420E-013
 0.907591E-013
 0.912146E-013
 0.915516E-013
 0.909420E-013
 0.913256E-013
 0.911897E-013
 0.912832E-013
 0.912900E-013
 0.913251E-013
 0.913520E-013
 0.913808E-013
 0.914091E-013
 0.914374E-013
 0.914656E-013
 0.914936E-013
 0.915216E-013
 0.915494E-013
 0.915771E-013
 0.916047E-013
 0.916321E-013
 0.916594E-013
 0.916866E-013
 0.917136E-013
 0.917404E-013
 0.917670E-013
 0.917935E-013
 0.918197E-013
 0.918457E-013
 0.918714E-013
 0.918969E-013
 0.919221E-013
 0.919471E-013
 0.919717E-013
 0.919959E-013
 0.920198E-013
 0.920433E-013
 0.920665E-013
 0.920891E-013
 0.921114E-013
 0.921331E-013
 0.921544E-013
 0.921751E-013
 0.921953E-013
 0.922149E-013
 0.922339E-013
 0.922522E-013
 0.922699E-013
 0.922869E-013
 0.923032E-013
 0.923187E-013
 0.923335E-013
 0.923475E-013
 0.923606E-013
 0.923730E-013
 0.923844E-013
 0.923950E-013
 0.924047E-013
 0.924135E-013
 0.924214E-013
 0.924283E-013
 0.924342E-013
 0.924392E-013
 0.924432E-013
 0.924462E-013
 0.924482E-013
 0.924492E-013
 0.924492E-013
 0.924482E-013
 0.924462E-013
 0.924432E-013
 0.924392E-013
 0.924342E-013
 0.924283E-013
 0.924214E-013
 0.924135E-013
 0.924047E-013
 0.923950E-013
 0.923844E-013
 0.923730E-013
 0.923606E-013
 0.923475E-013
 0.923335E-013
 0.923187E-013
 0.923032E-013
 0.922869E-013
 0.922699E-013
 0.922522E-013
 0.922339E-013
 0.922149E-013
 0.921953E-013
 0.921751E-013
 0.921544E-013
 0.921331E-013
 0.921114E-013
 0.920891E-013
 0.920664E-013
 0.920433E-013
 0.920198E-013
 0.919959E-013
 0.919716E-013
 0.919470E-013
 0.919221E-013
 0.918969E-013
 0.918714E-013
 0.918457E-013
 0.918197E-013
 0.917935E-013
 0.917670E-013
 0.917404E-013
 0.917136E-013
 0.916866E-013
 0.916594E-013
 0.916321E-013
 0.916047E-013
 0.915771E-013
 0.915494E-013
 0.915215E-013
 0.914936E-013
 0.914655E-013
 0.914374E-013
 0.914091E-013
 0.913808E-013
 0.913519E-013
 0.913251E-013
 0.912900E-013
 0.912832E-013
 0.911897E-013
 0.913256E-013
 0.909420E-013
 0.915516E-013
 0.915265E-013
 0.907744E-013
 0.911897E-013
 0.909741E-013
 0.910426E-013
 0.910026E-013
 0.909985E-013
 0.909840E-013
 0.909722E-013
 0.909598E-013
 0.909476E-013
 0.909355E-013
 0.909233E-013
 0.909113E-013
 0.908992E-013
 0.908873E-013
 0.908754E-013
 0.908635E-013
 0.908517E-013
 0.908400E-013
 0.908283E-013
 0.908167E-013
 0.908052E-013
 0.907938E-013
 0.907825E-013
 0.907712E-013
 0.907601E-013
 0.907491E-013
 0.907382E-013
 0.907274E-013
 0.907168E-013
 0.907063E-013
 0.906960E-013
 0.906858E-013
 0.906758E-013
 0.906660E-013
 0.906564E-013
 0.906470E-013
 0.906378E-013
 0.906289E-013
 0.906202E-013
 0.906117E-013
 0.906035E-013
 0.905956E-013
 0.905879E-013
 0.905806E-013
 0.905735E-013
 0.905668E-013
 0.905604E-013
 0.905544E-013
 0.905487E-013
 0.905434E-013
 0.905384E-013
 0.905338E-013
 0.905296E-013
 0.905258E-013
 0.905224E-013
 0.905195E-013
 0.905169E-013
 0.905147E-013
 0.905130E-013
 0.905117E-013
 0.905109E-013
 0.905104E-013
 0.905104E-013
 0.905109E-013
 0.905117E-013
 0.905130E-013
 0.905147E-013
 0.905169E-013
 0.905195E-013
 0.905224E-013
 0.905258E-013
 0.905296E-013
 0.905338E-013
 0.905384E-013
 0.905434E-013
 0.905487E-013
 0.905544E-013
 0.905604E-013
 0.905668E-013
 0.905735E-013
 0.905806E-013
 0.905879E-013
 0.905956E-013
 0.906035E-013
 0.906117E-013
 0.906202E-013
 0.906289E-013
 0.906379E-013
 0.906470E-013
 0.906564E-013
 0.906661E-013
 0.906759E-013
 0.906858E-013
 0.906960E-013
 0.907063E-013
 0.907168E-013
 0.907275E-013
 0.907382E-013
 0.907491E-013
 0.907601E-013
 0.907712E-013
 0.907825E-013
 0.907938E-013
 0.908052E-013
 0.908167E-013
 0.908283E-013
 0.908400E-013
 0.908517E-013
 0.908635E-013
 0.908754E-013
 0.908873E-013
 0.908993E-013
 0.909113E-013
 0.909234E-013
 0.909355E-013
 0.909476E-013
 0.909598E-013
 0.909722E-013
 0.909840E-013
 0.909985E-013
 0.910026E-013
 0.910426E-013
 0.909741E-013
 0.911897E-013
 0.907744E-013
 0.915265E-013
 0.916449E-013
 0.907651E-013
 0.912832E-013
 0.910426E-013
 0.911452E-013
 0.911161E-013
 0.911306E-013
 0.911325E-013
 0.911375E-013
 0.911418E-013
 0.911463E-013
 0.911507E-013
 0.911551E-013
 0.911595E-013
 0.911638E-013
 0.911682E-013
 0.911725E-013
 0.911768E-013
 0.911811E-013
 0.911853E-013
 0.911896E-013
 0.911938E-013
 0.911979E-013
 0.912021E-013
 0.912062E-013
 0.912102E-013
 0.912143E-013
 0.912183E-013
 0.912222E-013
 0.912261E-013
 0.912300E-013
 0.912338E-013
 0.912375E-013
 0.912412E-013
 0.912448E-013
 0.912484E-013
 0.912519E-013
 0.912553E-013
 0.912586E-013
 0.912619E-013
 0.912650E-013
 0.912681E-013
 0.912711E-013
 0.912739E-013
 0.912767E-013
 0.912794E-013
 0.912819E-013
 0.912844E-013
 0.912867E-013
 0.912889E-013
 0.912909E-013
 0.912929E-013
 0.912947E-013
 0.912963E-013
 0.912979E-013
 0.912992E-013
 0.913005E-013
 0.913016E-013
 0.913025E-013
 0.913033E-013
 0.913039E-013
 0.913044E-013
 0.913047E-013
 0.913048E-013
 0.913048E-013
 0.913047E-013
 0.913044E-013
 0.913039E-013
 0.913033E-013
 0.913025E-013
 0.913016E-013
 0.913005E-013
 0.912992E-013
 0.912979E-013
 0.912963E-013
 0.912947E-013
 0.912929E-013
 0.912909E-013
 0.912889E-013
 0.912867E-013
 0.912844E-013
 0.912819E-013
 0.912794E-013
 0.912767E-013
 0.912739E-013
 0.912711E-013
 0.912681E-013
 0.912650E-013
 0.912619E-013
 0.912586E-013
 0.912553E-013
 0.912519E-013
 0.912484E-013
 0.912448E-013
 0.912412E-013
 0.912375E-013
 0.912338E-013
 0.912300E-013
 0.912261E-013
 0.912222E-013
 0.912183E-013
 0.912143E-013
 0.912102E-013
 0.912062E-013
 0.912021E-013
 0.911979E-013
 0.911938E-013
 0.911896E-013
 0.911853E-013
 0.911811E-013
 0.911768E-013
 0.911725E-013
 0.911682E-013
 0.911638E-013
 0.911595E-013
 0.911551E-013
 0.911507E-013
 0.911463E-013
 0.911418E-013
 0.911375E-013
 0.911325E-013
 0.911306E-013
 0.911161E-013
 0.911452E-013
 0.910426E-013
 0.912832E-013
 0.907651E-013
 0.916449E-013
 0.917133E-013
 0.906958E-013
 0.912900E-013
 0.910026E-013
 0.911161E-013
 0.910753E-013
 0.910857E-013
 0.910812E-013
 0.910805E-013
 0.910790E-013
 0.910776E-013
 0.910763E-013
 0.910749E-013
 0.910735E-013
 0.910722E-013
 0.910708E-013
 0.910695E-013
 0.910681E-013
 0.910668E-013
 0.910655E-013
 0.910642E-013
 0.910629E-013
 0.910616E-013
 0.910603E-013
 0.910590E-013
 0.910577E-013
 0.910565E-013
 0.910552E-013
 0.910540E-013
 0.910528E-013
 0.910516E-013
 0.910504E-013
 0.910493E-013
 0.910481E-013
 0.910470E-013
 0.910459E-013
 0.910448E-013
 0.910437E-013
 0.910427E-013
 0.910417E-013
 0.910407E-013
 0.910398E-013
 0.910388E-013
 0.910379E-013
 0.910371E-013
 0.910363E-013
 0.910355E-013
 0.910347E-013
 0.910340E-013
 0.910333E-013
 0.910327E-013
 0.910321E-013
 0.910315E-013
 0.910310E-013
 0.910305E-013
 0.910301E-013
 0.910297E-013
 0.910294E-013
 0.910291E-013
 0.910289E-013
 0.910287E-013
 0.910285E-013
 0.910284E-013
 0.910284E-013
 0.910284E-013
 0.910284E-013
 0.910285E-013
 0.910287E-013
 0.910289E-013
 0.910291E-013
 0.910294E-013
 0.910297E-013
 0.910301E-013
 0.910305E-013
 0.910310E-013
 0.910315E-013
 0.910321E-013
 0.910327E-013
 0.910333E-013
 0.910340E-013
 0.910347E-013
 0.910355E-013
 0.910363E-013
 0.910371E-013
 0.910379E-013
 0.910388E-013
 0.910398E-013
 0.910407E-013
 0.910417E-013
 0.910427E-013
 0.910437E-013
 0.910448E-013
 0.910459E-013
 0.910470E-013
 0.910481E-013
 0.910493E-013
 0.910504E-013
 0.910516E-013
 0.910528E-013
 0.910540E-013
 0.910552E-013
 0.910565E-013
 0.910577E-013
 0.910590E-013
 0.910603E-013
 0.910616E-013
 0.910629E-013
 0.910642E-013
 0.910655E-013
 0.910668E-013
 0.910681E-013
 0.910695E-013
 0.910708E-013
 0.910722E-013
 0.910735E-013
 0.910749E-013
 0.910763E-013
 0.910776E-013
 0.910790E-013
 0.910805E-013
 0.910812E-013
 0.910857E-013
 0.910753E-013
 0.911161E-013
 0.910026E-013
 0.912900E-013
 0.906958E-013
 0.917133E-013
 0.917967E-013
 0.906463E-013
 0.913251E-013
 0.909985E-013
 0.911306E-013
 0.910857E-013
 0.910996E-013
 0.910964E-013
 0.910976E-013
 0.910978E-013
 0.910982E-013
 0.910986E-013
 0.910990E-013
 0.910993E-013
 0.910997E-013
 0.911001E-013
 0.911004E-013
 0.911008E-013
 0.911012E-013
 0.911015E-013
 0.911019E-013
 0.911022E-013
 0.911026E-013
 0.911029E-013
 0.911033E-013
 0.911036E-013
 0.911040E-013
 0.911043E-013
 0.911047E-013
 0.911050E-013
 0.911053E-013
 0.911056E-013
 0.911060E-013
 0.911063E-013
 0.911066E-013
 0.911069E-013
 0.911072E-013
 0.911075E-013
 0.911078E-013
 0.911080E-013
 0.911083E-013
 0.911086E-013
 0.911088E-013
 0.911091E-013
 0.911093E-013
 0.911096E-013
 0.911098E-013
 0.911100E-013
 0.911102E-013
 0.911104E-013
 0.911106E-013
 0.911107E-013
 0.911109E-013
 0.911110E-013
 0.911112E-013
 0.911113E-013
 0.911114E-013
 0.911115E-013
 0.911116E-013
 0.911116E-013
 0.911117E-013
 0.911117E-013
 0.911117E-013
 0.911118E-013
 0.911118E-013
 0.911117E-013
 0.911117E-013
 0.911117E-013
 0.911116E-013
 0.911116E-013
 0.911115E-013
 0.911114E-013
 0.911113E-013
 0.911112E-013
 0.911110E-013
 0.911109E-013
 0.911107E-013
 0.911106E-013
 0.911104E-013
 0.911102E-013
 0.911100E-013
 0.911098E-013
 0.911096E-013
 0.911093E-013
 0.911091E-013
 0.911088E-013
 0.911086E-013
 0.911083E-013
 0.911080E-013
 0.911078E-013
 0.911075E-013
 0.911072E-013
 0.911069E-013
 0.911066E-013
 0.911063E-013
 0.911060E-013
 0.911056E-013
 0.911053E-013
 0.911050E-013
 0.911047E-013
 0.911043E-013
 0.911040E-013
 0.911036E-013
 0.911033E-013
 0.911029E-013
 0.911026E-013
 0.911022E-013
 0.911019E-013
 0.911015E-013
 0.911012E-013
 0.911008E-013
 0.911004E-013
 0.911001E-013
 0.910997E-013
 0.910993E-013
 0.910990E-013
 0.910986E-013
 0.910982E-013
 0.910978E-013
 0.910976E-013
 0.910964E-013
 0.910996E-013
 0.910857E-013
 0.911306E-013
 0.909985E-013
 0.913251E-013
 0.906463E-013
 0.917967E-013
 0.918757E-013
 0.905913E-013
 0.913520E-013
 0.909840E-013
 0.911325E-013
 0.910812E-013
 0.910964E-013
 0.910923E-013
 0.910931E-013
 0.910928E-013
 0.910928E-013
 0.910927E-013
 0.910926E-013
 0.910925E-013
 0.910924E-013
 0.910923E-013
 0.910923E-013
 0.910922E-013
 0.910921E-013
 0.910920E-013
 0.910919E-013
 0.910918E-013
 0.910917E-013
 0.910917E-013
 0.910916E-013
 0.910915E-013
 0.910914E-013
 0.910913E-013
 0.910913E-013
 0.910912E-013
 0.910911E-013
 0.910910E-013
 0.910910E-013
 0.910909E-013
 0.910908E-013
 0.910907E-013
 0.910907E-013
 0.910906E-013
 0.910905E-013
 0.910905E-013
 0.910904E-013
 0.910904E-013
 0.910903E-013
 0.910903E-013
 0.910902E-013
 0.910901E-013
 0.910901E-013
 0.910901E-013
 0.910900E-013
 0.910900E-013
 0.910899E-013
 0.910899E-013
 0.910899E-013
 0.910898E-013
 0.910898E-013
 0.910898E-013
 0.910898E-013
 0.910897E-013
 0.910897E-013
 0.910897E-013
 0.910897E-013
 0.910897E-013
 0.910897E-013
 0.910897E-013
 0.910897E-013
 0.910897E-013
 0.910897E-013
 0.910897E-013
 0.910897E-013
 0.910897E-013
 0.910897E-013
 0.910898E-013
 0.910898E-013
 0.910898E-013
 0.910898E-013
 0.910899E-013
 0.910899E-013
 0.910899E-013
 0.910900E-013
 0.910900E-013
 0.910901E-013
 0.910901E-013
 0.910901E-013
 0.910902E-013
 0.910903E-013
 0.910903E-013
 0.910904E-013
 0.910904E-013
 0.910905E-013
 0.910905E-013
 0.910906E-013
 0.910907E-013
 0.910907E-013
 0.910908E-013
 0.910909E-013
 0.910910E-013
 0.910910E-013
 0.910911E-013
 0.910912E-013
 0.910913E-013
 0.910913E-013
 0.910914E-013
 0.910915E-013
 0.910916E-013
 0.910917E-013
 0.910917E-013
 0.910918E-013
 0.910919E-013
 0.910920E-013
 0.910921E-013
 0.910922E-013
 0.910923E-013
 0.910923E-013
 0.910924E-013
 0.910925E-013
 0.910926E-013
 0.910927E-013
 0.910928E-013
 0.910928E-013
 0.910931E-013
 0.910923E-013
 0.910964E-013
 0.910812E-013
 0.911324E-013
 0.909840E-013
 0.913519E-013
 0.905913E-013
 0.918757E-013
 0.919555E-013
 0.905379E-013
 0.913808E-013
 0.909722E-013
 0.911375E-013
 0.910805E-013
 0.910976E-013
 0.910931E-013
 0.910942E-013
 0.910940E-013
 0.910941E-013
 0.910941E-013
 0.910941E-013
 0.910941E-013
 0.910941E-013
 0.910942E-013
 0.910942E-013
 0.910942E-013
 0.910942E-013
 0.910942E-013
 0.910943E-013
 0.910943E-013
 0.910943E-013
 0.910943E-013
 0.910943E-013
 0.910944E-013
 0.910944E-013
 0.910944E-013
 0.910944E-013
 0.910944E-013
 0.910945E-013
 0.910945E-013
 0.910945E-013
 0.910945E-013
 0.910945E-013
 0.910946E-013
 0.910946E-013
 0.910946E-013
 0.910946E-013
 0.910946E-013
 0.910947E-013
 0.910947E-013
 0.910947E-013
 0.910947E-013
 0.910947E-013
 0.910948E-013
 0.910948E-013
 0.910948E-013
 0.910948E-013
 0.910948E-013
 0.910948E-013
 0.910948E-013
 0.910949E-013
 0.910949E-013
 0.910949E-013
 0.910949E-013
 0.910949E-013
 0.910949E-013
 0.910949E-013
 0.910949E-013
 0.910949E-013
 0.910949E-013
 0.910949E-013
 0.910949E-013
 0.910949E-013
 0.910949E-013
 0.910949E-013
 0.910949E-013
 0.910949E-013
 0.910949E-013
 0.910949E-013
 0.910949E-013
 0.910949E-013
 0.910949E-013
 0.910949E-013
 0.910949E-013
 0.910948E-013
 0.910948E-013
 0.910948E-013
 0.910948E-013
 0.910948E-013
 0.910948E-013
 0.910948E-013
 0.910947E-013
 0.910947E-013
 0.910947E-013
 0.910947E-013
 0.910947E-013
 0.910946E-013
 0.910946E-013
 0.910946E-013
 0.910946E-013
 0.910946E-013
 0.910945E-013
 0.910945E-013
 0.910945E-013
 0.910945E-013
 0.910945E-013
 0.910944E-013
 0.910944E-013
 0.910944E-013
 0.910944E-013
 0.910944E-013
 0.910943E-013
 0.910943E-013
 0.910943E-013
 0.910943E-013
 0.910943E-013
 0.910942E-013
 0.910942E-013
 0.910942E-013
 0.910942E-013
 0.910942E-013
 0.910941E-013
 0.910941E-013
 0.910941E-013
 0.910941E-013
 0.910941E-013
 0.910940E-013
 0.910942E-013
 0.910931E-013
 0.910976E-013
 0.910805E-013
 0.911375E-013
 0.909722E-013
 0.913808E-013
 0.905379E-013
 0.919555E-013
 0.920349E-013
 0.904843E-013
 0.914091E-013
 0.909598E-013
 0.911418E-013
 0.910790E-013
 0.910978E-013
 0.910928E-013
 0.910940E-013
 0.910938E-013
 0.910938E-013
 0.910938E-013
 0.910938E-013
 0.910938E-013
 0.910938E-013
 0.910938E-013
 0.910938E-013
 0.910938E-013
 0.910938E-013
 0.910938E-013
 0.910938E-013
 0.910938E-013
 0.910938E-013
 0.910938E-013
 0.910938E-013
 0.910938E-013
 0.910938E-013
 0.910938E-013
 0.910938E-013
 0.910938E-013
 0.910938E-013
 0.910938E-013
 0.910938E-013
 0.910938E-013
 0.910938E-013
 0.910938E-013
 0.910938E-013
 0.910938E-013
 0.910938E-013
 0.910938E-013
 0.910938E-013
 0.910938E-013
 0.910938E-013
 0.910938E-013
 0.910938E-013
 0.910938E-013
 0.910938E-013
 0.910938E-013
 0.910938E-013
 0.910938E-013
 0.910938E-013
 0.910938E-013
 0.910938E-013
 0.910938E-013
 0.910938E-013
 0.910938E-013
 0.910938E-013
 0.910938E-013
 0.910938E-013
 0.910938E-013
 0.910939E-013
 0.910939E-013
 0.910939E-013
 0.910939E-013
 0.910939E-013
 0.910939E-013
 0.910939E-013
 0.910939E-013
 0.910938E-013
 0.910938E-013
 0.910938E-013
 0.910938E-013
 0.910938E-013
 0.910938E-013
 0.910938E-013
 0.910938E-013
 0.910938E-013
 0.910938E-013
 0.910938E-013
 0.910938E-013
 0.910938E-013
 0.910938E-013
 0.910938E-013
 0.910938E-013
 0.910938E-013
 0.910938E-013
 0.910938E-013
 0.910938E-013
 0.910938E-013
 0.910938E-013
 0.910938E-013
 0.910938E-013
 0.910938E-013
 0.910938E-013
 0.910938E-013
 0.910938E-013
 0.910938E-013
 0.910938E-013
 0.910938E-013
 0.910938E-013
 0.910938E-013
 0.910938E-013
 0.910938E-013
 0.910938E-013
 0.910938E-013
 0.910938E-013
 0.910938E-013
 0.910938E-013
 0.910938E-013
 0.910938E-013
 0.910938E-013
 0.910938E-013
 0.910938E-013
 0.910938E-013
 0.910938E-013
 0.910938E-013
 0.910938E-013
 0.910938E-013
 0.910938E-013
 0.910940E-013
 0.910928E-013
 0.910978E-013
 0.910790E-013
 0.911418E-013
 0.909598E-013
 0.914091E-013
 0.904843E-013
 0.920349E-013
 0.921141E-013
 0.904309E-013
 0.914374E-013
 0.909476E-013
 0.911463E-013
 0.910776E-013
 0.910982E-013
 0.910928E-013
 0.910941E-013
 0.910938E-013
 0.910939E-013
 0.910938E-013
 0.910938E-013
 0.910938E-013
 0.910939E-013
 0.910939E-013
 0.910939E-013
 0.910939E-013
 0.910939E-013
 0.910939E-013
 0.910939E-013
 0.910939E-013
 0.910939E-013
 0.910939E-013
 0.910939E-013
 0.910939E-013
 0.910939E-013
 0.910939E-013
 0.910939E-013
 0.910939E-013
 0.910939E-013
 0.910939E-013
 0.910939E-013
 0.910939E-013
 0.910939E-013
 0.910939E-013
 0.910939E-013
 0.910939E-013
 0.910939E-013
 0.910940E-013
 0.910940E-013
 0.910940E-013
 0.910940E-013
 0.910940E-013
 0.910940E-013
 0.910940E-013
 0.910940E-013
 0.910940E-013
 0.910940E-013