# vtk DataFile Version 3.0
Solution data
ASCII
DATASET STRUCTURED_GRID
DIMENSIONS 128 128 1
POINTS 16384  double
      0.000004      0.000004      0.000000
      0.000012      0.000004      0.000000
      0.000020      0.000004      0.000000
      0.000027      0.000004      0.000000
      0.000035      0.000004      0.000000
      0.000043      0.000004      0.000000
      0.000051      0.000004      0.000000
      0.000059      0.000004      0.000000
      0.000066      0.000004      0.000000
      0.000074      0.000004      0.000000
      0.000082      0.000004      0.000000
      0.000090      0.000004      0.000000
      0.000098      0.000004      0.000000
      0.000105      0.000004      0.000000
      0.000113      0.000004      0.000000
      0.000121      0.000004      0.000000
      0.000129      0.000004      0.000000
      0.000137      0.000004      0.000000
      0.000145      0.000004      0.000000
      0.000152      0.000004      0.000000
      0.000160      0.000004      0.000000
      0.000168      0.000004      0.000000
      0.000176      0.000004      0.000000
      0.000184      0.000004      0.000000
      0.000191      0.000004      0.000000
      0.000199      0.000004      0.000000
      0.000207      0.000004      0.000000
      0.000215      0.000004      0.000000
      0.000223      0.000004      0.000000
      0.000230      0.000004      0.000000
      0.000238      0.000004      0.000000
      0.000246      0.000004      0.000000
      0.000254      0.000004      0.000000
      0.000262      0.000004      0.000000
      0.000270      0.000004      0.000000
      0.000277      0.000004      0.000000
      0.000285      0.000004      0.000000
      0.000293      0.000004      0.000000
      0.000301      0.000004      0.000000
      0.000309      0.000004      0.000000
      0.000316      0.000004      0.000000
      0.000324      0.000004      0.000000
      0.000332      0.000004      0.000000
      0.000340      0.000004      0.000000
      0.000348      0.000004      0.000000
      0.000355      0.000004      0.000000
      0.000363      0.000004      0.000000
      0.000371      0.000004      0.000000
      0.000379      0.000004      0.000000
      0.000387      0.000004      0.000000
      0.000395      0.000004      0.000000
      0.000402      0.000004      0.000000
      0.000410      0.000004      0.000000
      0.000418      0.000004      0.000000
      0.000426      0.000004      0.000000
      0.000434      0.000004      0.000000
      0.000441      0.000004      0.000000
      0.000449      0.000004      0.000000
      0.000457      0.000004      0.000000
      0.000465      0.000004      0.000000
      0.000473      0.000004      0.000000
      0.000480      0.000004      0.000000
      0.000488      0.000004      0.000000
      0.000496      0.000004      0.000000
      0.000504      0.000004      0.000000
      0.000512      0.000004      0.000000
      0.000520      0.000004      0.000000
      0.000527      0.000004      0.000000
      0.000535      0.000004      0.000000
      0.000543      0.000004      0.000000
      0.000551      0.000004      0.000000
      0.000559      0.000004      0.000000
      0.000566      0.000004      0.000000
      0.000574      0.000004      0.000000
      0.000582      0.000004      0.000000
      0.000590      0.000004      0.000000
      0.000598      0.000004      0.000000
      0.000605      0.000004      0.000000
      0.000613      0.000004      0.000000
      0.000621      0.000004      0.000000
      0.000629      0.000004      0.000000
      0.000637      0.000004      0.000000
      0.000645      0.000004      0.000000
      0.000652      0.000004      0.000000
      0.000660      0.000004      0.000000
      0.000668      0.000004      0.000000
      0.000676      0.000004      0.000000
      0.000684      0.000004      0.000000
      0.000691      0.000004      0.000000
      0.000699      0.000004      0.000000
      0.000707      0.000004      0.000000
      0.000715      0.000004      0.000000
      0.000723      0.000004      0.000000
      0.000730      0.000004      0.000000
      0.000738      0.000004      0.000000
      0.000746      0.000004      0.000000
      0.000754      0.000004      0.000000
      0.000762      0.000004      0.000000
      0.000770      0.000004      0.000000
      0.000777      0.000004      0.000000
      0.000785      0.000004      0.000000
      0.000793      0.000004      0.000000
      0.000801      0.000004      0.000000
      0.000809      0.000004      0.000000
      0.000816      0.000004      0.000000
      0.000824      0.000004      0.000000
      0.000832      0.000004      0.000000
      0.000840      0.000004      0.000000
      0.000848      0.000004      0.000000
      0.000855      0.000004      0.000000
      0.000863      0.000004      0.000000
      0.000871      0.000004      0.000000
      0.000879      0.000004      0.000000
      0.000887      0.000004      0.000000
      0.000895      0.000004      0.000000
      0.000902      0.000004      0.000000
      0.000910      0.000004      0.000000
      0.000918      0.000004      0.000000
      0.000926      0.000004      0.000000
      0.000934      0.000004      0.000000
      0.000941      0.000004      0.000000
      0.000949      0.000004      0.000000
      0.000957      0.000004      0.000000
      0.000965      0.000004      0.000000
      0.000973      0.000004      0.000000
      0.000980      0.000004      0.000000
      0.000988      0.000004      0.000000
      0.000996      0.000004      0.000000
      0.000004      0.000012      0.000000
      0.000012      0.000012      0.000000
      0.000020      0.000012      0.000000
      0.000027      0.000012      0.000000
      0.000035      0.000012      0.000000
      0.000043      0.000012      0.000000
      0.000051      0.000012      0.000000
      0.000059      0.000012      0.000000
      0.000066      0.000012      0.000000
      0.000074      0.000012      0.000000
      0.000082      0.000012      0.000000
      0.000090      0.000012      0.000000
      0.000098      0.000012      0.000000
      0.000105      0.000012      0.000000
      0.000113      0.000012      0.000000
      0.000121      0.000012      0.000000
      0.000129      0.000012      0.000000
      0.000137      0.000012      0.000000
      0.000145      0.000012      0.000000
      0.000152      0.000012      0.000000
      0.000160      0.000012      0.000000
      0.000168      0.000012      0.000000
      0.000176      0.000012      0.000000
      0.000184      0.000012      0.000000
      0.000191      0.000012      0.000000
      0.000199      0.000012      0.000000
      0.000207      0.000012      0.000000
      0.000215      0.000012      0.000000
      0.000223      0.000012      0.000000
      0.000230      0.000012      0.000000
      0.000238      0.000012      0.000000
      0.000246      0.000012      0.000000
      0.000254      0.000012      0.000000
      0.000262      0.000012      0.000000
      0.000270      0.000012      0.000000
      0.000277      0.000012      0.000000
      0.000285      0.000012      0.000000
      0.000293      0.000012      0.000000
      0.000301      0.000012      0.000000
      0.000309      0.000012      0.000000
      0.000316      0.000012      0.000000
      0.000324      0.000012      0.000000
      0.000332      0.000012      0.000000
      0.000340      0.000012      0.000000
      0.000348      0.000012      0.000000
      0.000355      0.000012      0.000000
      0.000363      0.000012      0.000000
      0.000371      0.000012      0.000000
      0.000379      0.000012      0.000000
      0.000387      0.000012      0.000000
      0.000395      0.000012      0.000000
      0.000402      0.000012      0.000000
      0.000410      0.000012      0.000000
      0.000418      0.000012      0.000000
      0.000426      0.000012      0.000000
      0.000434      0.000012      0.000000
      0.000441      0.000012      0.000000
      0.000449      0.000012      0.000000
      0.000457      0.000012      0.000000
      0.000465      0.000012      0.000000
      0.000473      0.000012      0.000000
      0.000480      0.000012      0.000000
      0.000488      0.000012      0.000000
      0.000496      0.000012      0.000000
      0.000504      0.000012      0.000000
      0.000512      0.000012      0.000000
      0.000520      0.000012      0.000000
      0.000527      0.000012      0.000000
      0.000535      0.000012      0.000000
      0.000543      0.000012      0.000000
      0.000551      0.000012      0.000000
      0.000559      0.000012      0.000000
      0.000566      0.000012      0.000000
      0.000574      0.000012      0.000000
      0.000582      0.000012      0.000000
      0.000590      0.000012      0.000000
      0.000598      0.000012      0.000000
      0.000605      0.000012      0.000000
      0.000613      0.000012      0.000000
      0.000621      0.000012      0.000000
      0.000629      0.000012      0.000000
      0.000637      0.000012      0.000000
      0.000645      0.000012      0.000000
      0.000652      0.000012      0.000000
      0.000660      0.000012      0.000000
      0.000668      0.000012      0.000000
      0.000676      0.000012      0.000000
      0.000684      0.000012      0.000000
      0.000691      0.000012      0.000000
      0.000699      0.000012      0.000000
      0.000707      0.000012      0.000000
      0.000715      0.000012      0.000000
      0.000723      0.000012      0.000000
      0.000730      0.000012      0.000000
      0.000738      0.000012      0.000000
      0.000746      0.000012      0.000000
      0.000754      0.000012      0.000000
      0.000762      0.000012      0.000000
      0.000770      0.000012      0.000000
      0.000777      0.000012      0.000000
      0.000785      0.000012      0.000000
[...]
POINT_DATA 16384
SCALARS rhoe double
LOOKUP_TABLE default
 0.916373E-013
 0.912467E-013
 0.915420E-013
 0.915532E-013
 0.916641E-013
 0.917445E-013
 0.918327E-013
 0.919187E-013
 0.920050E-013
 0.920909E-013
 0.921765E-013
 0.922618E-013
 0.923469E-013
 0.924317E-013
 0.925161E-013
 0.926001E-013
 0.926838E-013
 0.927671E-013
 0.928500E-013
 0.929325E-013
 0.930144E-013
 0.930958E-013
 0.931767E-013
 0.932570E-013
 0.933367E-013
 0.934156E-013
 0.934939E-013
 0.935713E-013
 0.936479E-013
 0.937236E-013
 0.937984E-013
 0.938721E-013
 0.939448E-013
 0.940163E-013
 0.940865E-013
 0.941555E-013
 0.942231E-013
 0.942893E-013
 0.943539E-013
 0.944169E-013
 0.944782E-013
 0.945378E-013
 0.945955E-013
 0.946513E-013
 0.947051E-013
 0.947568E-013
 0.948063E-013
 0.948535E-013
 0.948985E-013
 0.949410E-013
 0.949810E-013
 0.950185E-013
 0.950534E-013
 0.950857E-013
 0.951152E-013
 0.951419E-013
 0.951657E-013
 0.951867E-013
 0.952048E-013
 0.952199E-013
 0.952320E-013
 0.952411E-013
 0.952472E-013
 0.952503E-013
 0.952503E-013
 0.952472E-013
 0.952411E-013
 0.952320E-013
 0.952199E-013
 0.952048E-013
 0.951867E-013
 0.951657E-013
 0.951419E-013
 0.951152E-013
 0.950857E-013
 0.950535E-013
 0.950186E-013
 0.949810E-013
 0.949410E-013
 0.948985E-013
 0.948535E-013
 0.948063E-013
 0.947568E-013
 0.947051E-013
 0.946513E-013
 0.945955E-013
 0.945378E-013
 0.944783E-013
 0.944169E-013
 0.943539E-013
 0.942893E-013
 0.942231E-013
 0.941555E-013
 0.940866E-013
 0.940163E-013
 0.939448E-013
 0.938721E-013
 0.937984E-013
 0.937236E-013
 0.936479E-013
 0.935713E-013
 0.934939E-013
 0.934156E-013
 0.933367E-013
 0.932570E-013
 0.931767E-013
 0.930959E-013
 0.930144E-013
 0.929325E-013
 0.928500E-013
 0.927672E-013
 0.926839E-013
 0.926002E-013
 0.925161E-013
 0.924317E-013
 0.923469E-013
 0.922619E-013
 0.921765E-013
 0.920909E-013
 0.920050E-013
 0.919188E-013
 0.918327E-013
 0.917445E-013
 0.916641E-013
 0.915532E-013
 0.915420E-013
 0.912467E-013
 0.916373E-013
 0.912467E-013
 0.907792E-013
 0.909438E-013
 0.907997E-013
 0.907775E-013
 0.907154E-013
 0.906647E-013
 0.906114E-013
 0.905588E-013
 0.905063E-013
 0.904539E-013
 0.904018E-013
 0.903498E-013
 0.902980E-013
 0.902464E-013
 0.901950E-013
 0.901439E-013
 0.900930E-013
 0.900423E-013
 0.899919E-013
 0.899418E-013
 0.898921E-013
 0.898426E-013
 0.897935E-013
 0.897448E-013
 0.896965E-013
 0.896487E-013
 0.896013E-013
 0.895545E-013
 0.895081E-013
 0.894624E-013
 0.894173E-013
 0.893728E-013
 0.893290E-013
 0.892860E-013
 0.892438E-013
 0.892024E-013
 0.891619E-013
 0.891223E-013
 0.890837E-013
 0.890462E-013
 0.890097E-013
 0.889743E-013
 0.889401E-013
 0.889072E-013
 0.888755E-013
 0.888452E-013
 0.888162E-013
 0.887887E-013
 0.887626E-013
 0.887380E-013
 0.887150E-013
 0.886936E-013
 0.886739E-013
 0.886558E-013
 0.886394E-013
 0.886248E-013
 0.886119E-013
 0.886008E-013
 0.885916E-013
 0.885841E-013
 0.885785E-013
 0.885748E-013
 0.885729E-013
 0.885729E-013
 0.885748E-013
 0.885785E-013
 0.885841E-013
 0.885916E-013
 0.886008E-013
 0.886119E-013
 0.886248E-013
 0.886394E-013
 0.886558E-013
 0.886739E-013
 0.886937E-013
 0.887151E-013
 0.887381E-013
 0.887626E-013
 0.887887E-013
 0.888162E-013
 0.888452E-013
 0.888755E-013
 0.889072E-013
 0.889402E-013
 0.889743E-013
 0.890097E-013
 0.890462E-013
 0.890838E-013
 0.891223E-013
 0.891619E-013
 0.892024E-013
 0.892438E-013
 0.892861E-013
 0.893291E-013
 0.893728E-013
 0.894173E-013
 0.894624E-013
 0.895082E-013
 0.895545E-013
 0.896013E-013
 0.896487E-013
 0.896965E-013
 0.897448E-013
 0.897935E-013
 0.898426E-013
 0.898921E-013
 0.899419E-013
 0.899919E-013
 0.900423E-013
 0.900930E-013
 0.901439E-013
 0.901951E-013
 0.902464E-013
 0.902980E-013
 0.903498E-013
 0.904018E-013
 0.904539E-013
 0.905063E-013
 0.905588E-013
 0.906114E-013
 0.906647E-013
 0.907154E-013
 0.907775E-013
 0.907997E-013
 0.909438E-013
 0.907793E-013
 0.912467E-013
 0.915420E-013
 0.909438E-013
 0.912846E-013
 0.911796E-013
 0.912486E-013
 0.912605E-013
 0.912883E-013
 0.913122E-013
 0.913368E-013
 0.913612E-013
 0.913855E-013
 0.914098E-013
 0.914339E-013
 0.914580E-013
 0.914820E-013
 0.915058E-013
 0.915296E-013
 0.915532E-013
 0.915767E-013
 0.916001E-013
 0.916234E-013
 0.916465E-013
 0.916695E-013
 0.916922E-013
 0.917148E-013
 0.917372E-013
 0.917594E-013
 0.917814E-013
 0.918032E-013
 0.918247E-013
 0.918459E-013
 0.918668E-013
 0.918874E-013
 0.919077E-013
 0.919277E-013
 0.919473E-013
 0.919665E-013
 0.919853E-013
 0.920036E-013
 0.920215E-013
 0.920389E-013
 0.920559E-013
 0.920723E-013
 0.920881E-013
 0.921034E-013
 0.921181E-013
 0.921322E-013
 0.921456E-013
 0.921584E-013
 0.921705E-013
 0.921818E-013
 0.921925E-013
 0.922024E-013
 0.922116E-013
 0.922200E-013
 0.922276E-013
 0.922344E-013
 0.922403E-013
 0.922455E-013
 0.922498E-013
 0.922532E-013
 0.922558E-013
 0.922575E-013
 0.922584E-013
 0.922584E-013
 0.922575E-013
 0.922558E-013
 0.922532E-013
 0.922498E-013
 0.922455E-013
 0.922403E-013
 0.922344E-013
 0.922276E-013
 0.922200E-013
 0.922116E-013
 0.922024E-013
 0.921925E-013
 0.921818E-013
 0.921704E-013
 0.921583E-013
 0.921456E-013
 0.921321E-013
 0.921181E-013
 0.921034E-013
 0.920881E-013
 0.920722E-013
 0.920558E-013
 0.920389E-013
 0.920215E-013
 0.920036E-013
 0.919852E-013
 0.919665E-013
 0.919473E-013
 0.919277E-013
 0.919077E-013
 0.918874E-013
 0.918668E-013
 0.918459E-013
 0.918246E-013
 0.918032E-013
 0.917814E-013
 0.917594E-013
 0.917372E-013
 0.917148E-013
 0.916922E-013
 0.916694E-013
 0.916465E-013
 0.916234E-013
 0.916001E-013
 0.915767E-013
 0.915532E-013
 0.915296E-013
 0.915058E-013
 0.914820E-013
 0.914580E-013
 0.914339E-013
 0.914098E-013
 0.913855E-013
 0.913612E-013
 0.913368E-013
 0.913122E-013
 0.912883E-013
 0.912605E-013
 0.912486E-013
 0.911796E-013
 0.912846E-013
 0.909438E-013
 0.915420E-013
 0.915532E-013
 0.907997E-013
 0.911796E-013
 0.910077E-013
 0.910545E-013
 0.910290E-013
 0.910240E-013
 0.910139E-013
 0.910050E-013
 0.909959E-013
 0.909869E-013
 0.909779E-013
 0.909689E-013
 0.909600E-013
 0.909511E-013
 0.909422E-013
 0.909334E-013
 0.909246E-013
 0.909159E-013
 0.909072E-013
 0.908985E-013
 0.908900E-013
 0.908814E-013
 0.908730E-013
 0.908646E-013
 0.908563E-013
 0.908480E-013
 0.908398E-013
 0.908318E-013
 0.908238E-013
 0.908159E-013
 0.908081E-013
 0.908005E-013
 0.907929E-013
 0.907855E-013
 0.907782E-013
 0.907711E-013
 0.907641E-013
 0.907573E-013
 0.907507E-013
 0.907442E-013
 0.907379E-013
 0.907318E-013
 0.907259E-013
 0.907203E-013
 0.907148E-013
 0.907096E-013
 0.907046E-013
 0.906998E-013
 0.906954E-013
 0.906911E-013
 0.906872E-013
 0.906835E-013
 0.906801E-013
 0.906770E-013
 0.906741E-013
 0.906716E-013
 0.906694E-013
 0.906675E-013
 0.906659E-013
 0.906646E-013
 0.906637E-013
 0.906630E-013
 0.906627E-013
 0.906627E-013
 0.906630E-013
 0.906637E-013
 0.906646E-013
 0.906659E-013
 0.906675E-013
 0.906694E-013
 0.906716E-013
 0.906741E-013
 0.906770E-013
 0.906801E-013
 0.906835E-013
 0.906872E-013
 0.906911E-013
 0.906954E-013
 0.906999E-013
 0.907046E-013
 0.907096E-013
 0.907148E-013
 0.907203E-013
 0.907259E-013
 0.907318E-013
 0.907379E-013
 0.907442E-013
 0.907507E-013
 0.907573E-013
 0.907642E-013
 0.907711E-013
 0.907783E-013
 0.907855E-013
 0.907929E-013
 0.908005E-013
 0.908081E-013
 0.908159E-013
 0.908238E-013
 0.908318E-013
 0.908399E-013
 0.908480E-013
 0.908563E-013
 0.908646E-013
 0.908730E-013
 0.908814E-013
 0.908900E-013
 0.908986E-013
 0.909072E-013
 0.909159E-013
 0.909246E-013
 0.909334E-013
 0.909422E-013
 0.909511E-013
 0.909600E-013
 0.909689E-013
 0.909779E-013
 0.909869E-013
 0.909959E-013
 0.910050E-013
 0.910139E-013
 0.910240E-013
 0.910290E-013
 0.910545E-013
 0.910077E-013
 0.911796E-013
 0.907997E-013
 0.915532E-013
 0.916641E-013
 0.907775E-013
 0.912486E-013
 0.910545E-013
 0.911255E-013
 0.911084E-013
 0.911162E-013
 0.911179E-013
 0.911209E-013
 0.911237E-013
 0.911265E-013
 0.911292E-013
 0.911320E-013
 0.911347E-013
 0.911375E-013
 0.911402E-013
 0.911429E-013
 0.911456E-013
 0.911483E-013
 0.911510E-013
 0.911537E-013
 0.911563E-013
 0.911589E-013
 0.911615E-013
 0.911641E-013
 0.911667E-013
 0.911692E-013
 0.911717E-013
 0.911742E-013
 0.911767E-013
 0.911791E-013
 0.911815E-013
 0.911838E-013
 0.911862E-013
 0.911884E-013
 0.911907E-013
 0.911929E-013
 0.911950E-013
 0.911971E-013
 0.911992E-013
 0.912012E-013
 0.912031E-013
 0.912050E-013
 0.912068E-013
 0.912085E-013
 0.912102E-013
 0.912118E-013
 0.912134E-013
 0.912148E-013
 0.912162E-013
 0.912175E-013
 0.912188E-013
 0.912199E-013
 0.912209E-013
 0.912219E-013
 0.912228E-013
 0.912235E-013
 0.912242E-013
 0.912248E-013
 0.912253E-013
 0.912257E-013
 0.912260E-013
 0.912262E-013
 0.912263E-013
 0.912263E-013
 0.912262E-013
 0.912260E-013
 0.912257E-013
 0.912253E-013
 0.912248E-013
 0.912242E-013
 0.912235E-013
 0.912228E-013
 0.912219E-013
 0.912209E-013
 0.912199E-013
 0.912187E-013
 0.912175E-013
 0.912162E-013
 0.912148E-013
 0.912134E-013
 0.912118E-013
 0.912102E-013
 0.912085E-013
 0.912068E-013
 0.912050E-013
 0.912031E-013
 0.912012E-013
 0.911992E-013
 0.911971E-013
 0.911950E-013
 0.911929E-013
 0.911907E-013
 0.911884E-013
 0.911862E-013
 0.911838E-013
 0.911815E-013
 0.911791E-013
 0.911767E-013
 0.911742E-013
 0.911717E-013
 0.911692E-013
 0.911667E-013
 0.911641E-013
 0.911615E-013
 0.911589E-013
 0.911563E-013
 0.911536E-013
 0.911510E-013
 0.911483E-013
 0.911456E-013
 0.911429E-013
 0.911402E-013
 0.911375E-013
 0.911347E-013
 0.911320E-013
 0.911292E-013
 0.911265E-013
 0.911237E-013
 0.911209E-013
 0.911179E-013
 0.911162E-013
 0.911084E-013
 0.911255E-013
 0.910545E-013
 0.912486E-013
 0.907775E-013
 0.916641E-013
 0.917445E-013
 0.907154E-013
 0.912605E-013
 0.910290E-013
 0.911084E-013
 0.910842E-013
 0.910894E-013
 0.910873E-013
 0.910868E-013
 0.910861E-013
 0.910853E-013
 0.910846E-013
 0.910839E-013
 0.910832E-013
 0.910825E-013
 0.910817E-013
 0.910810E-013
 0.910803E-013
 0.910796E-013
 0.910789E-013
 0.910782E-013
 0.910775E-013
 0.910769E-013
 0.910762E-013
 0.910755E-013
 0.910748E-013
 0.910742E-013
 0.910735E-013
 0.910729E-013
 0.910722E-013
 0.910716E-013
 0.910710E-013
 0.910703E-013
 0.910697E-013
 0.910691E-013
 0.910686E-013
 0.910680E-013
 0.910674E-013
 0.910669E-013
 0.910664E-013
 0.910658E-013
 0.910653E-013
 0.910648E-013
 0.910644E-013
 0.910639E-013
 0.910635E-013
 0.910631E-013
 0.910627E-013
 0.910623E-013
 0.910619E-013
 0.910616E-013
 0.910613E-013
 0.910610E-013
 0.910607E-013
 0.910605E-013
 0.910602E-013
 0.910600E-013
 0.910599E-013
 0.910597E-013
 0.910596E-013
 0.910595E-013
 0.910594E-013
 0.910594E-013
 0.910593E-013
 0.910593E-013
 0.910594E-013
 0.910594E-013
 0.910595E-013
 0.910596E-013
 0.910597E-013
 0.910599E-013
 0.910600E-013
 0.910602E-013
 0.910605E-013
 0.910607E-013
 0.910610E-013
 0.910613E-013
 0.910616E-013
 0.910619E-013
 0.910623E-013
 0.910627E-013
 0.910631E-013
 0.910635E-013
 0.910639E-013
 0.910644E-013
 0.910648E-013
 0.910653E-013
 0.910658E-013
 0.910664E-013
 0.910669E-013
 0.910674E-013
 0.910680E-013
 0.910686E-013
 0.910691E-013
 0.910697E-013
 0.910703E-013
 0.910710E-013
 0.910716E-013
 0.910722E-013
 0.910729E-013
 0.910735E-013
 0.910742E-013
 0.910748E-013
 0.910755E-013
 0.910762E-013
 0.910769E-013
 0.910775E-013
 0.910782E-013
 0.910789E-013
 0.910796E-013
 0.910803E-013
 0.910810E-013
 0.910817E-013
 0.910825E-013
 0.910832E-013
 0.910839E-013
 0.910846E-013
 0.910853E-013
 0.910861E-013
 0.910868E-013
 0.910873E-013
 0.910894E-013
 0.910842E-013
 0.911084E-013
 0.910290E-013
 0.912605E-013
 0.907154E-013
 0.917445E-013
 0.918327E-013
 0.906647E-013
 0.912883E-013
 0.910240E-013
 0.911162E-013
 0.910894E-013
 0.910963E-013
 0.910950E-013
 0.910955E-013
 0.910956E-013
 0.910958E-013
 0.910959E-013
 0.910961E-013
 0.910963E-013
 0.910964E-013
 0.910966E-013
 0.910967E-013
 0.910969E-013
 0.910971E-013
 0.910972E-013
 0.910974E-013
 0.910975E-013
 0.910977E-013
 0.910979E-013
 0.910980E-013
 0.910982E-013
 0.910983E-013
 0.910985E-013
 0.910986E-013
 0.910988E-013
 0.910989E-013
 0.910991E-013
 0.910992E-013
 0.910993E-013
 0.910995E-013
 0.910996E-013
 0.910998E-013
 0.910999E-013
 0.911000E-013
 0.911001E-013
 0.911003E-013
 0.911004E-013
 0.911005E-013
 0.911006E-013
 0.911007E-013
 0.911008E-013
 0.911009E-013
 0.911010E-013
 0.911011E-013
 0.911012E-013
 0.911013E-013
 0.911014E-013
 0.911014E-013
 0.911015E-013
 0.911016E-013
 0.911016E-013
 0.911017E-013
 0.911017E-013
 0.911017E-013
 0.911018E-013
 0.911018E-013
 0.911018E-013
 0.911018E-013
 0.911018E-013
 0.911018E-013
 0.911018E-013
 0.911018E-013
 0.911018E-013
 0.911018E-013
 0.911017E-013
 0.911017E-013
 0.911017E-013
 0.911016E-013
 0.911016E-013
 0.911015E-013
 0.911014E-013
 0.911014E-013
 0.911013E-013
 0.911012E-013
 0.911011E-013
 0.911010E-013
 0.911009E-013
 0.911008E-013
 0.911007E-013
 0.911006E-013
 0.911005E-013
 0.911004E-013
 0.911003E-013
 0.911001E-013
 0.911000E-013
 0.910999E-013
 0.910998E-013
 0.910996E-013
 0.910995E-013
 0.910993E-013
 0.910992E-013
 0.910991E-013
 0.910989E-013
 0.910988E-013
 0.910986E-013
 0.910985E-013
 0.910983E-013
 0.910982E-013
 0.910980E-013
 0.910979E-013
 0.910977E-013
 0.910975E-013
 0.910974E-013
 0.910972E-013
 0.910971E-013
 0.910969E-013
 0.910967E-013
 0.910966E-013
 0.910964E-013
 0.910963E-013
 0.910961E-013
 0.910959E-013
 0.910958E-013
 0.910956E-013
 0.910955E-013
 0.910950E-013
 0.910963E-013
 0.910894E-013
 0.911162E-013
 0.910240E-013
 0.912883E-013
 0.906647E-013
 0.918327E-013
 0.919187E-013
 0.906114E-013
 0.913122E-013
 0.910139E-013
 0.911179E-013
 0.910873E-013
 0.910950E-013
 0.910933E-013
 0.910936E-013
 0.910935E-013
 0.910935E-013
 0.910934E-013
 0.910934E-013
 0.910934E-013
 0.910933E-013
 0.910933E-013
 0.910933E-013
 0.910932E-013
 0.910932E-013
 0.910932E-013
 0.910931E-013
 0.910931E-013
 0.910931E-013
 0.910930E-013
 0.910930E-013
 0.910930E-013
 0.910930E-013
 0.910929E-013
 0.910929E-013
 0.910929E-013
 0.910928E-013
 0.910928E-013
 0.910928E-013
 0.910928E-013
 0.910927E-013
 0.910927E-013
 0.910927E-013
 0.910927E-013
 0.910927E-013
 0.910926E-013
 0.910926E-013
 0.910926E-013
 0.910926E-013
 0.910926E-013
 0.910926E-013
 0.910925E-013
 0.910925E-013
 0.910925E-013
 0.910925E-013
 0.910925E-013
 0.910925E-013
 0.910925E-013
 0.910925E-013
 0.910924E-013
 0.910924E-013
 0.910924E-013
 0.910924E-013
 0.910924E-013
 0.910924E-013
 0.910924E-013
 0.910924E-013
 0.910924E-013
 0.910924E-013
 0.910924E-013
 0.910924E-013
 0.910924E-013
 0.910924E-013
 0.910924E-013
 0.910924E-013
 0.910924E-013
 0.910924E-013
 0.910924E-013
 0.910924E-013
 0.910924E-013
 0.910925E-013
 0.910925E-013
 0.910925E-013
 0.910925E-013
 0.910925E-013
 0.910925E-013
 0.910925E-013
 0.910925E-013
 0.910925E-013
 0.910926E-013
 0.910926E-013
 0.910926E-013
 0.910926E-013
 0.910926E-013
 0.910926E-013
 0.910927E-013
 0.910927E-013
 0.910927E-013
 0.910927E-013
 0.910927E-013
 0.910928E-013
 0.910928E-013
 0.910928E-013
 0.910928E-013
 0.910929E-013
 0.910929E-013
 0.910929E-013
 0.910930E-013
 0.910930E-013
 0.910930E-013
 0.910930E-013
 0.910931E-013
 0.910931E-013
 0.910931E-013
 0.910932E-013
 0.910932E-013
 0.910932E-013
 0.910933E-013
 0.910933E-013
 0.910933E-013
 0.910934E-013
 0.910934E-013
 0.910934E-013
 0.910935E-013
 0.910935E-013
 0.910936E-013
 0.910933E-013
 0.910950E-013
 0.910873E-013
 0.911179E-013
 0.910139E-013
 0.913122E-013
 0.906114E-013
 0.919188E-013
 0.920050E-013
 0.905588E-013
 0.913368E-013
 0.910050E-013
 0.911209E-013
 0.910868E-013
 0.910955E-013
 0.910936E-013
 0.910939E-013
 0.910939E-013
 0.910939E-013
 0.910939E-013
 0.910939E-013
 0.910939E-013
 0.910939E-013
 0.910939E-013
 0.910939E-013
 0.910939E-013
 0.910940E-013
 0.910940E-013
 0.910940E-013
 0.910940E-013
 0.910940E-013
 0.910940E-013
 0.910940E-013
 0.910940E-013
 0.910940E-013
 0.910940E-013
 0.910940E-013
 0.910940E-013
 0.910940E-013
 0.910941E-013
 0.910941E-013
 0.910941E-013
 0.910941E-013
 0.910941E-013
 0.910941E-013
 0.910941E-013
 0.910941E-013
 0.910941E-013
 0.910941E-013
 0.910942E-013
 0.910942E-013
 0.910942E-013
 0.910942E-013
 0.910942E-013
 0.910942E-013
 0.910942E-013
 0.910942E-013
 0.910942E-013
 0.910942E-013
 0.910942E-013
 0.910943E-013
 0.910943E-013
 0.910943E-013
 0.910943E-013
 0.910943E-013
 0.910943E-013
 0.910943E-013
 0.910943E-013
 0.910943E-013
 0.910943E-013
 0.910943E-013
 0.910943E-013
 0.910943E-013
 0.910943E-013
 0.910943E-013
 0.910943E-013
 0.910943E-013
 0.910943E-013
 0.910943E-013
 0.910943E-013
 0.910943E-013
 0.910943E-013
 0.910943E-013
 0.910943E-013
 0.910942E-013
 0.910942E-013
 0.910942E-013
 0.910942E-013
 0.910942E-013
 0.910942E-013
 0.910942E-013
 0.910942E-013
 0.910942E-013
 0.910942E-013
 0.910942E-013
 0.910941E-013
 0.910941E-013
 0.910941E-013
 0.910941E-013
 0.910941E-013
 0.910941E-013
 0.910941E-013
 0.910941E-013
 0.910941E-013
 0.910941E-013
 0.910940E-013
 0.910940E-013
 0.910940E-013
 0.910940E-013
 0.910940E-013
 0.910940E-013
 0.910940E-013
 0.910940E-013
 0.910940E-013
 0.910940E-013
 0.910940E-013
 0.910940E-013
 0.910940E-013
 0.910940E-013
 0.910939E-013
 0.910939E-013
 0.910939E-013
 0.910939E-013
 0.910939E-013
 0.910939E-013
 0.910939E-013
 0.910939E-013
 0.910939E-013
 0.910936E-013
 0.910955E-013
 0.910868E-013
 0.911209E-013
 0.910050E-013
 0.913368E-013
 0.905588E-013
 0.920050E-013
 0.920909E-013
 0.905063E-013
 0.913612E-013
 0.909959E-013
 0.911237E-013
 0.910861E-013
 0.910956E-013
 0.910935E-013
 0.910939E-013
 0.910938E-013
 0.910938E-013
 0.910938E-013
 0.910938E-013
 0.910938E-013
 0.910938E-013
 0.910938E-013
 0.910938E-013
 0.910938E-013
 0.910938E-013
 0.910938E-013
 0.910938E-013
 0.910938E-013
 0.910938E-013
 0.910938E-013
 0.910938E-013
 0.910938E-013
 0.910938E-013
 0.910938E-013
 0.910938E-013
 0.910938E-013
 0.910938E-013
 0.910938E-013
 0.910938E-013
 0.910939E-013
 0.910939E-013
 0.910939E-013
 0.910939E-013
 0.910939E-013
 0.910939E-013
 0.910939E-013
 0.910939E-013
 0.910939E-013
 0.910939E-013
 0.910939E-013
 0.910939E-013
 0.910939E-013
 0.910939E-013
 0.910939E-013
 0.910939E-013
 0.910939E-013
 0.910940E-013
 0.910940E-013
 0.910940E-013
 0.910940E-013
 0.910940E-013
 0.910940E-013
 0.910940E-013
 0.910940E-013
 0.910940E-013
 0.910940E-013
 0.910940E-013
 0.910940E-013
 0.910940E-013
 0.910940E-013
 0.910940E-013
 0.910940E-013
 0.910940E-013
 0.910940E-013
 0.910940E-013
 0.910940E-013
 0.910940E-013
 0.910940E-013
 0.910940E-013
 0.910940E-013
 0.910940E-013
 0.910940E-013
 0.910940E-013
 0.910940E-013
 0.910939E-013
 0.910939E-013
 0.910939E-013
 0.910939E-013
 0.910939E-013
 0.910939E-013
 0.910939E-013
 0.910939E-013
 0.910939E-013
 0.910939E-013
 0.910939E-013
 0.910939E-013
 0.910939E-013
 0.910939E-013
 0.910939E-013
 0.910939E-013
 0.910939E-013
 0.910938E-013
 0.910938E-013
 0.910938E-013
 0.910938E-013
 0.910938E-013
 0.910938E-013
 0.910938E-013
 0.910938E-013
 0.910938E-013
 0.910938E-013
 0.910938E-013
 0.910938E-013
 0.910938E-013
 0.910938E-013
 0.910938E-013
 0.910938E-013
 0.910938E-013
 0.910938E-013
 0.910938E-013
 0.910938E-013
 0.910938E-013
 0.910938E-013
 0.910938E-013
 0.910938E-013
 0.910939E-013
 0.910935E-013
 0.910956E-013
 0.910861E-013
 0.911237E-013
 0.909959E-013
 0.913612E-013
 0.905063E-013
 0.920909E-013
 0.921765E-013
 0.904539E-013
 0.913855E-013
 0.909869E-013
 0.911265E-013
 0.910853E-013
 0.910958E-013
 0.910935E-013
 0.910939E-013
 0.910938E-013
 0.910938E-013
 0.910938E-013
 0.910938E-013
 0.910938E-013
 0.910938E-013
 0.910938E-013
 0.910938E-013
 0.910938E-013
 0.910938E-013
 0.910938E-013
 0.910938E-013
 0.910939E-013
 0.910939E-013
 0.910939E-013
 0.910939E-013
 0.910939E-013
 0.910939E-013
 0.910939E-013
 0.910939E-013
 0.910939E-013
 0.910939E-013
 0.910939E-013
 0.910939E-013
 0.910939E-013
 0.910939E-013
 0.910939E-013
 0.910939E-013
 0.910939E-013
 0.910939E-013
 0.910939E-013
 0.910939E-013
 0.910940E-013
 0.910940E-013
 0.910940E-013
 0.910940E-013
 0.910940E-013
 0.910940E-013
 0.910940E-013
 0.910940E-013