# vtk DataFile Version 3.0
Solution data
ASCII
DATASET STRUCTURED_GRID
DIMENSIONS 128 128 1
POINTS 16384  double
      0.000004      0.000004      0.000000
      0.000012      0.000004      0.000000
      0.000020      0.000004      0.000000
      0.000027      0.000004      0.000000
      0.000035      0.000004      0.000000
      0.000043      0.000004      0.000000
      0.000051      0.000004      0.000000
      0.000059      0.000004      0.000000
      0.000066      0.000004      0.000000
      0.000074      0.000004      0.000000
      0.000082      0.000004      0.000000
      0.000090      0.000004      0.000000
      0.000098      0.000004      0.000000
      0.000105      0.000004      0.000000
      0.000113      0.000004      0.000000
      0.000121      0.000004      0.000000
      0.000129      0.000004      0.000000
      0.000137      0.000004      0.000000
      0.000145      0.000004      0.000000
      0.000152      0.000004      0.000000
      0.000160      0.000004      0.000000
      0.000168      0.000004      0.000000
      0.000176      0.000004      0.000000
      0.000184      0.000004      0.000000
      0.000191      0.000004      0.000000
      0.000199      0.000004      0.000000
      0.000207      0.000004      0.000000
      0.000215      0.000004      0.000000
      0.000223      0.000004      0.000000
      0.000230      0.000004      0.000000
      0.000238      0.000004      0.000000
      0.000246      0.000004      0.000000
      0.000254      0.000004      0.000000
      0.000262      0.000004      0.000000
      0.000270      0.000004      0.000000
      0.000277      0.000004      0.000000
      0.000285      0.000004      0.000000
      0.000293      0.000004      0.000000
      0.000301      0.000004      0.000000
      0.000309      0.000004      0.000000
      0.000316      0.000004      0.000000
      0.000324      0.000004      0.000000
      0.000332      0.000004      0.000000
      0.000340      0.000004      0.000000
      0.000348      0.000004      0.000000
      0.000355      0.000004      0.000000
      0.000363      0.000004      0.000000
      0.000371      0.000004      0.000000
      0.000379      0.000004      0.000000
      0.000387      0.000004      0.000000
      0.000395      0.000004      0.000000
      0.000402      0.000004      0.000000
      0.000410      0.000004      0.000000
      0.000418      0.000004      0.000000
      0.000426      0.000004      0.000000
      0.000434      0.000004      0.000000
      0.000441      0.000004      0.000000
      0.000449      0.000004      0.000000
      0.000457      0.000004      0.000000
      0.000465      0.000004      0.000000
      0.000473      0.000004      0.000000
      0.000480      0.000004      0.000000
      0.000488      0.000004      0.000000
      0.000496      0.000004      0.000000
      0.000504      0.000004      0.000000
      0.000512      0.000004      0.000000
      0.000520      0.000004      0.000000
      0.000527      0.000004      0.000000
      0.000535      0.000004      0.000000
      0.000543      0.000004      0.000000
      0.000551      0.000004      0.000000
      0.000559      0.000004      0.000000
      0.000566      0.000004      0.000000
      0.000574      0.000004      0.000000
      0.000582      0.000004      0.000000
      0.000590      0.000004      0.000000
      0.000598      0.000004      0.000000
      0.000605      0.000004      0.000000
      0.000613      0.000004      0.000000
      0.000621      0.000004      0.000000
      0.000629      0.000004      0.000000
      0.000637      0.000004      0.000000
      0.000645      0.000004      0.000000
      0.000652      0.000004      0.000000
      0.000660      0.000004      0.000000
      0.000668      0.000004      0.000000
      0.000676      0.000004      0.000000
      0.000684      0.000004      0.000000
      0.000691      0.000004      0.000000
      0.000699      0.000004      0.000000
      0.000707      0.000004      0.000000
      0.000715      0.000004      0.000000
      0.000723      0.000004      0.000000
      0.000730      0.000004      0.000000
      0.000738      0.000004      0.000000
      0.000746      0.000004      0.000000
      0.000754      0.000004      0.000000
      0.000762      0.000004      0.000000
      0.000770      0.000004      0.000000
      0.000777      0.000004      0.000000
      0.000785      0.000004      0.000000
      0.000793      0.000004      0.000000
      0.000801      0.000004      0.000000
      0.000809      0.000004      0.000000
      0.000816      0.000004      0.000000
      0.000824      0.000004      0.000000
      0.000832      0.000004      0.000000
      0.000840      0.000004      0.000000
      0.000848      0.000004      0.000000
      0.000855      0.000004      0.000000
      0.000863      0.000004      0.000000
      0.000871      0.000004      0.000000
      0.000879      0.000004      0.000000
      0.000887      0.000004      0.000000
      0.000895      0.000004      0.000000
      0.000902      0.000004      0.000000
      0.000910      0.000004      0.000000
      0.000918      0.000004      0.000000
      0.000926      0.000004      0.000000
      0.000934      0.000004      0.000000
      0.000941      0.000004      0.000000
      0.000949      0.000004      0.000000
      0.000957      0.000004      0.000000
      0.000965      0.000004      0.000000
      0.000973      0.000004      0.000000
      0.000980      0.000004      0.000000
      0.000988      0.000004      0.000000
      0.000996      0.000004      0.000000
      0.000004      0.000012      0.000000
      0.000012      0.000012      0.000000
      0.000020      0.000012      0.000000
      0.000027      0.000012      0.000000
      0.000035      0.000012      0.000000
      0.000043      0.000012      0.000000
      0.000051      0.000012      0.000000
      0.000059      0.000012      0.000000
      0.000066      0.000012      0.000000
      0.000074      0.000012      0.000000
      0.000082      0.000012      0.000000
      0.000090      0.000012      0.000000
      0.000098      0.000012      0.000000
      0.000105      0.000012      0.000000
      0.000113      0.000012      0.000000
      0.000121      0.000012      0.000000
      0.000129      0.000012      0.000000
      0.000137      0.000012      0.000000
      0.000145      0.000012      0.000000
      0.000152      0.000012      0.000000
      0.000160      0.000012      0.000000
      0.000168      0.000012      0.000000
      0.000176      0.000012      0.000000
      0.000184      0.000012      0.000000
      0.000191      0.000012      0.000000
      0.000199      0.000012      0.000000
      0.000207      0.000012      0.000000
      0.000215      0.000012      0.000000
      0.000223      0.000012      0.000000
      0.000230      0.000012      0.000000
      0.000238      0.000012      0.000000
      0.000246      0.000012      0.000000
      0.000254      0.000012      0.000000
      0.000262      0.000012      0.000000
      0.000270      0.000012      0.000000
      0.000277      0.000012      0.000000
      0.000285      0.000012      0.000000
      0.000293      0.000012      0.000000
      0.000301      0.000012      0.000000
      0.000309      0.000012      0.000000
      0.000316      0.000012      0.000000
      0.000324      0.000012      0.000000
      0.000332      0.000012      0.000000
      0.000340      0.000012      0.000000
      0.000348      0.000012      0.000000
      0.000355      0.000012      0.000000
      0.000363      0.000012      0.000000
      0.000371      0.000012      0.000000
      0.000379      0.000012      0.000000
      0.000387      0.000012      0.000000
      0.000395      0.000012      0.000000
      0.000402      0.000012      0.000000
      0.000410      0.000012      0.000000
      0.000418      0.000012      0.000000
      0.000426      0.000012      0.000000
      0.000434      0.000012      0.000000
      0.000441      0.000012      0.000000
      0.000449      0.000012      0.000000
      0.000457      0.000012      0.000000
      0.000465      0.000012      0.000000
      0.000473      0.000012      0.000000
      0.000480      0.000012      0.000000
      0.000488      0.000012      0.000000
      0.000496      0.000012      0.000000
      0.000504      0.000012      0.000000
      0.000512      0.000012      0.000000
      0.000520      0.000012      0.000000
      0.000527      0.000012      0.000000
      0.000535      0.000012      0.000000
      0.000543      0.000012      0.000000
      0.000551      0.000012      0.000000
      0.000559      0.000012      0.000000
      0.000566      0.000012      0.000000
      0.000574      0.000012      0.000000
      0.000582      0.000012      0.000000
      0.000590      0.000012      0.000000
      0.000598      0.000012      0.000000
      0.000605      0.000012      0.000000
      0.000613      0.000012      0.000000
      0.000621      0.000012      0.000000
      0.000629      0.000012      0.000000
      0.000637      0.000012      0.000000
      0.000645      0.000012      0.000000
      0.000652      0.000012      0.000000
      0.000660      0.000012      0.000000
      0.000668      0.000012      0.000000
      0.000676      0.000012      0.000000
      0.000684      0.000012      0.000000
      0.000691      0.000012      0.000000
      0.000699      0.000012      0.000000
      0.000707      0.000012      0.000000
      0.000715      0.000012      0.000000
      0.000723      0.000012      0.000000
      0.000730      0.000012      0.000000
      0.000738      0.000012      0.000000
      0.000746      0.000012      0.000000
      0.000754      0.000012      0.000000
      0.000762      0.000012      0.000000
      0.000770      0.000012      0.000000
      0.000777      0.000012      0.000000
      0.000785      0.000012      0.000000
[...]
POINT_DATA 16384
SCALARS rhoe double
LOOKUP_TABLE default
 0.913810E-013
 0.912998E-013
 0.914270E-013
 0.915187E-013
 0.916147E-013
 0.917100E-013
 0.918053E-013
 0.919004E-013
 0.919953E-013
 0.920900E-013
 0.921845E-013
 0.922789E-013
 0.923730E-013
 0.924669E-013
 0.925605E-013
 0.926539E-013
 0.927470E-013
 0.928398E-013
 0.929322E-013
 0.930242E-013
 0.931158E-013
 0.932070E-013
 0.932977E-013
 0.933878E-013
 0.934774E-013
 0.935663E-013
 0.936545E-013
 0.937420E-013
 0.938286E-013
 0.939143E-013
 0.939991E-013
 0.940828E-013
 0.941654E-013
 0.942469E-013
 0.943270E-013
 0.944058E-013
 0.944831E-013
 0.945588E-013
 0.946330E-013
 0.947053E-013
 0.947758E-013
 0.948444E-013
 0.949109E-013
 0.949753E-013
 0.950374E-013
 0.950972E-013
 0.951545E-013
 0.952093E-013
 0.952614E-013
 0.953108E-013
 0.953574E-013
 0.954010E-013
 0.954417E-013
 0.954792E-013
 0.955136E-013
 0.955447E-013
 0.955726E-013
 0.955971E-013
 0.956182E-013
 0.956359E-013
 0.956501E-013
 0.956607E-013
 0.956678E-013
 0.956714E-013
 0.956714E-013
 0.956678E-013
 0.956607E-013
 0.956500E-013
 0.956359E-013
 0.956182E-013
 0.955971E-013
 0.955725E-013
 0.955447E-013
 0.955135E-013
 0.954791E-013
 0.954416E-013
 0.954009E-013
 0.953573E-013
 0.953107E-013
 0.952613E-013
 0.952092E-013
 0.951544E-013
 0.950971E-013
 0.950373E-013
 0.949751E-013
 0.949108E-013
 0.948442E-013
 0.947757E-013
 0.947051E-013
 0.946328E-013
 0.945587E-013
 0.944829E-013
 0.944056E-013
 0.943268E-013
 0.942467E-013
 0.941652E-013
 0.940826E-013
 0.939989E-013
 0.939141E-013
 0.938284E-013
 0.937418E-013
 0.936543E-013
 0.935661E-013
 0.934772E-013
 0.933876E-013
 0.932975E-013
 0.932068E-013
 0.931157E-013
 0.930240E-013
 0.929320E-013
 0.928396E-013
 0.927468E-013
 0.926538E-013
 0.925604E-013
 0.924667E-013
 0.923729E-013
 0.922787E-013
 0.921844E-013
 0.920899E-013
 0.919952E-013
 0.919003E-013
 0.918052E-013
 0.917100E-013
 0.916146E-013
 0.915186E-013
 0.914270E-013
 0.912998E-013
 0.913810E-013
 0.912998E-013
 0.910009E-013
 0.910335E-013
 0.910062E-013
 0.909868E-013
 0.909666E-013
 0.909466E-013
 0.909265E-013
 0.909066E-013
 0.908867E-013
 0.908668E-013
 0.908470E-013
 0.908273E-013
 0.908076E-013
 0.907880E-013
 0.907685E-013
 0.907490E-013
 0.907296E-013
 0.907103E-013
 0.906911E-013
 0.906720E-013
 0.906529E-013
 0.906341E-013
 0.906153E-013
 0.905967E-013
 0.905782E-013
 0.905598E-013
 0.905417E-013
 0.905237E-013
 0.905059E-013
 0.904884E-013
 0.904710E-013
 0.904539E-013
 0.904371E-013
 0.904205E-013
 0.904043E-013
 0.903883E-013
 0.903727E-013
 0.903574E-013
 0.903425E-013
 0.903280E-013
 0.903139E-013
 0.903002E-013
 0.902869E-013
 0.902742E-013
 0.902619E-013
 0.902502E-013
 0.902389E-013
 0.902282E-013
 0.902181E-013
 0.902086E-013
 0.901997E-013
 0.901913E-013
 0.901837E-013
 0.901766E-013
 0.901703E-013
 0.901646E-013
 0.901596E-013
 0.901552E-013
 0.901516E-013
 0.901487E-013
 0.901466E-013
 0.901451E-013
 0.901444E-013
 0.901444E-013
 0.901451E-013
 0.901466E-013
 0.901487E-013
 0.901516E-013
 0.901553E-013
 0.901596E-013
 0.901646E-013
 0.901703E-013
 0.901766E-013
 0.901837E-013
 0.901914E-013
 0.901997E-013
 0.902086E-013
 0.902181E-013
 0.902283E-013
 0.902389E-013
 0.902502E-013
 0.902619E-013
 0.902742E-013
 0.902870E-013
 0.903002E-013
 0.903139E-013
 0.903280E-013
 0.903425E-013
 0.903574E-013
 0.903727E-013
 0.903883E-013
 0.904043E-013
 0.904206E-013
 0.904371E-013
 0.904540E-013
 0.904711E-013
 0.904884E-013
 0.905060E-013
 0.905237E-013
 0.905417E-013
 0.905599E-013
 0.905782E-013
 0.905967E-013
 0.906153E-013
 0.906341E-013
 0.906530E-013
 0.906720E-013
 0.906911E-013
 0.907103E-013
 0.907296E-013
 0.907490E-013
 0.907685E-013
 0.907880E-013
 0.908076E-013
 0.908273E-013
 0.908470E-013
 0.908668E-013
 0.908867E-013
 0.909066E-013
 0.909266E-013
 0.909466E-013
 0.909666E-013
 0.909868E-013
 0.910062E-013
 0.910335E-013
 0.910009E-013
 0.912998E-013
 0.914270E-013
 0.910335E-013
 0.911125E-013
 0.911050E-013
 0.911090E-013
 0.911118E-013
 0.911146E-013
 0.911175E-013
 0.911203E-013
 0.911232E-013
 0.911260E-013
 0.911288E-013
 0.911316E-013
 0.911344E-013
 0.911372E-013
 0.911400E-013
 0.911428E-013
 0.911455E-013
 0.911483E-013
 0.911510E-013
 0.911537E-013
 0.911564E-013
 0.911591E-013
 0.911618E-013
 0.911644E-013
 0.911671E-013
 0.911697E-013
 0.911723E-013
 0.911748E-013
 0.911774E-013
 0.911799E-013
 0.911824E-013
 0.911848E-013
 0.911872E-013
 0.911896E-013
 0.911919E-013
 0.911942E-013
 0.911964E-013
 0.911986E-013
 0.912008E-013
 0.912029E-013
 0.912049E-013
 0.912069E-013
 0.912088E-013
 0.912106E-013
 0.912124E-013
 0.912141E-013
 0.912157E-013
 0.912172E-013
 0.912187E-013
 0.912201E-013
 0.912214E-013
 0.912226E-013
 0.912237E-013
 0.912247E-013
 0.912257E-013
 0.912265E-013
 0.912272E-013
 0.912278E-013
 0.912284E-013
 0.912288E-013
 0.912291E-013
 0.912293E-013
 0.912294E-013
 0.912294E-013
 0.912293E-013
 0.912291E-013
 0.912288E-013
 0.912284E-013
 0.912278E-013
 0.912272E-013
 0.912265E-013
 0.912257E-013
 0.912247E-013
 0.912237E-013
 0.912226E-013
 0.912214E-013
 0.912201E-013
 0.912187E-013
 0.912172E-013
 0.912157E-013
 0.912141E-013
 0.912124E-013
 0.912106E-013
 0.912088E-013
 0.912069E-013
 0.912049E-013
 0.912029E-013
 0.912008E-013
 0.911986E-013
 0.911964E-013
 0.911942E-013
 0.911919E-013
 0.911896E-013
 0.911872E-013
 0.911848E-013
 0.911824E-013
 0.911799E-013
 0.911774E-013
 0.911748E-013
 0.911723E-013
 0.911697E-013
 0.911671E-013
 0.911644E-013
 0.911618E-013
 0.911591E-013
 0.911564E-013
 0.911537E-013
 0.911510E-013
 0.911483E-013
 0.911455E-013
 0.911428E-013
 0.911400E-013
 0.911372E-013
 0.911344E-013
 0.911316E-013
 0.911288E-013
 0.911260E-013
 0.911232E-013
 0.911203E-013
 0.911175E-013
 0.911146E-013
 0.911118E-013
 0.911090E-013
 0.911050E-013
 0.911125E-013
 0.910335E-013
 0.914270E-013
 0.915187E-013
 0.910062E-013
 0.911050E-013
 0.910912E-013
 0.910923E-013
 0.910919E-013
 0.910916E-013
 0.910913E-013
 0.910910E-013
 0.910907E-013
 0.910904E-013
 0.910901E-013
 0.910898E-013
 0.910895E-013
 0.910892E-013
 0.910889E-013
 0.910886E-013
 0.910883E-013
 0.910880E-013
 0.910877E-013
 0.910875E-013
 0.910872E-013
 0.910869E-013
 0.910866E-013
 0.910864E-013
 0.910861E-013
 0.910858E-013
 0.910856E-013
 0.910853E-013
 0.910851E-013
 0.910848E-013
 0.910846E-013
 0.910844E-013
 0.910841E-013
 0.910839E-013
 0.910837E-013
 0.910835E-013
 0.910833E-013
 0.910831E-013
 0.910829E-013
 0.910827E-013
 0.910825E-013
 0.910824E-013
 0.910822E-013
 0.910821E-013
 0.910819E-013
 0.910818E-013
 0.910817E-013
 0.910815E-013
 0.910814E-013
 0.910813E-013
 0.910812E-013
 0.910811E-013
 0.910811E-013
 0.910810E-013
 0.910809E-013
 0.910809E-013
 0.910808E-013
 0.910808E-013
 0.910807E-013
 0.910807E-013
 0.910807E-013
 0.910807E-013
 0.910807E-013
 0.910807E-013
 0.910807E-013
 0.910807E-013
 0.910807E-013
 0.910807E-013
 0.910808E-013
 0.910808E-013
 0.910809E-013
 0.910809E-013
 0.910810E-013
 0.910811E-013
 0.910811E-013
 0.910812E-013
 0.910813E-013
 0.910814E-013
 0.910815E-013
 0.910817E-013
 0.910818E-013
 0.910819E-013
 0.910821E-013
 0.910822E-013
 0.910824E-013
 0.910825E-013
 0.910827E-013
 0.910829E-013
 0.910831E-013
 0.910833E-013
 0.910835E-013
 0.910837E-013
 0.910839E-013
 0.910841E-013
 0.910844E-013
 0.910846E-013
 0.910848E-013
 0.910851E-013
 0.910853E-013
 0.910856E-013
 0.910858E-013
 0.910861E-013
 0.910864E-013
 0.910866E-013
 0.910869E-013
 0.910872E-013
 0.910875E-013
 0.910877E-013
 0.910880E-013
 0.910883E-013
 0.910886E-013
 0.910889E-013
 0.910892E-013
 0.910895E-013
 0.910898E-013
 0.910901E-013
 0.910904E-013
 0.910907E-013
 0.910910E-013
 0.910913E-013
 0.910916E-013
 0.910919E-013
 0.910923E-013
 0.910912E-013
 0.911051E-013
 0.910062E-013
 0.915186E-013
 0.916147E-013
 0.909868E-013
 0.911090E-013
 0.910923E-013
 0.910941E-013
 0.910940E-013
 0.910940E-013
 0.910941E-013
 0.910941E-013
 0.910941E-013
 0.910941E-013
 0.910942E-013
 0.910942E-013
 0.910942E-013
 0.910942E-013
 0.910943E-013
 0.910943E-013
 0.910943E-013
 0.910944E-013
 0.910944E-013
 0.910944E-013
 0.910945E-013
 0.910945E-013
 0.910945E-013
 0.910946E-013
 0.910946E-013
 0.910947E-013
 0.910947E-013
 0.910948E-013
 0.910948E-013
 0.910949E-013
 0.910949E-013
 0.910950E-013
 0.910950E-013
 0.910951E-013
 0.910951E-013
 0.910952E-013
 0.910953E-013
 0.910953E-013
 0.910954E-013
 0.910954E-013
 0.910955E-013
 0.910956E-013
 0.910956E-013
 0.910957E-013
 0.910958E-013
 0.910958E-013
 0.910959E-013
 0.910960E-013
 0.910960E-013
 0.910961E-013
 0.910962E-013
 0.910962E-013
 0.910963E-013
 0.910963E-013
 0.910964E-013
 0.910964E-013
 0.910964E-013
 0.910965E-013
 0.910965E-013
 0.910965E-013
 0.910965E-013
 0.910966E-013
 0.910966E-013
 0.910966E-013
 0.910966E-013
 0.910965E-013
 0.910965E-013
 0.910965E-013
 0.910965E-013
 0.910964E-013
 0.910964E-013
 0.910964E-013
 0.910963E-013
 0.910963E-013
 0.910962E-013
 0.910962E-013
 0.910961E-013
 0.910960E-013
 0.910960E-013
 0.910959E-013
 0.910958E-013
 0.910958E-013
 0.910957E-013
 0.910956E-013
 0.910956E-013
 0.910955E-013
 0.910954E-013
 0.910954E-013
 0.910953E-013
 0.910953E-013
 0.910952E-013
 0.910951E-013
 0.910951E-013
 0.910950E-013
 0.910950E-013
 0.910949E-013
 0.910949E-013
 0.910948E-013
 0.910948E-013
 0.910947E-013
 0.910947E-013
 0.910946E-013
 0.910946E-013
 0.910946E-013
 0.910945E-013
 0.910945E-013
 0.910944E-013
 0.910944E-013
 0.910944E-013
 0.910943E-013
 0.910943E-013
 0.910943E-013
 0.910943E-013
 0.910942E-013
 0.910942E-013
 0.910942E-013
 0.910941E-013
 0.910941E-013
 0.910941E-013
 0.910941E-013
 0.910940E-013
 0.910940E-013
 0.910941E-013
 0.910923E-013
 0.911090E-013
 0.909868E-013
 0.916146E-013
 0.917100E-013
 0.909666E-013
 0.911118E-013
 0.910919E-013
 0.910940E-013
 0.910938E-013
 0.910938E-013
 0.910938E-013
 0.910938E-013
 0.910938E-013
 0.910938E-013
 0.910938E-013
 0.910938E-013
 0.910938E-013
 0.910938E-013
 0.910938E-013
 0.910938E-013
 0.910938E-013
 0.910938E-013
 0.910938E-013
 0.910939E-013
 0.910939E-013
 0.910939E-013
 0.910939E-013
 0.910939E-013
 0.910939E-013
 0.910940E-013
 0.910940E-013
 0.910940E-013
 0.910940E-013
 0.910941E-013
 0.910941E-013
 0.910941E-013
 0.910942E-013
 0.910942E-013
 0.910942E-013
 0.910943E-013
 0.910943E-013
 0.910944E-013
 0.910944E-013
 0.910945E-013
 0.910945E-013
 0.910946E-013
 0.910947E-013
 0.910947E-013
 0.910948E-013
 0.910948E-013
 0.910949E-013
 0.910950E-013
 0.910950E-013
 0.910951E-013
 0.910951E-013
 0.910952E-013
 0.910952E-013
 0.910953E-013
 0.910953E-013
 0.910954E-013
 0.910954E-013
 0.910954E-013
 0.910955E-013
 0.910955E-013
 0.910955E-013
 0.910955E-013
 0.910955E-013
 0.910955E-013
 0.910955E-013
 0.910955E-013
 0.910955E-013
 0.910955E-013
 0.910954E-013
 0.910954E-013
 0.910954E-013
 0.910953E-013
 0.910953E-013
 0.910952E-013
 0.910952E-013
 0.910951E-013
 0.910951E-013
 0.910950E-013
 0.910950E-013
 0.910949E-013
 0.910948E-013
 0.910948E-013
 0.910947E-013
 0.910947E-013
 0.910946E-013
 0.910946E-013
 0.910945E-013
 0.910944E-013
 0.910944E-013
 0.910943E-013
 0.910943E-013
 0.910942E-013
 0.910942E-013
 0.910942E-013
 0.910941E-013
 0.910941E-013
 0.910941E-013
 0.910940E-013
 0.910940E-013
 0.910940E-013
 0.910940E-013
 0.910939E-013
 0.910939E-013
 0.910939E-013
 0.910939E-013
 0.910939E-013
 0.910939E-013
 0.910939E-013
 0.910938E-013
 0.910938E-013
 0.910938E-013
 0.910938E-013
 0.910938E-013
 0.910938E-013
 0.910938E-013
 0.910938E-013
 0.910938E-013
 0.910938E-013
 0.910938E-013
 0.910938E-013
 0.910938E-013
 0.910938E-013
 0.910940E-013
 0.910919E-013
 0.911118E-013
 0.909666E-013
 0.917100E-013
 0.918053E-013
 0.909466E-013
 0.911146E-013
 0.910916E-013
 0.910940E-013
 0.910938E-013
 0.910938E-013
 0.910938E-013
 0.910938E-013
 0.910938E-013
 0.910938E-013
 0.910938E-013
 0.910938E-013
 0.910939E-013
 0.910939E-013
 0.910939E-013
 0.910939E-013
 0.910939E-013
 0.910939E-013
 0.910939E-013
 0.910939E-013
 0.910939E-013
 0.910939E-013
 0.910940E-013
 0.910940E-013
 0.910940E-013
 0.910940E-013
 0.910941E-013
 0.910941E-013
 0.910941E-013
 0.910942E-013
 0.910942E-013
 0.910943E-013
 0.910943E-013
 0.910944E-013
 0.910944E-013
 0.910945E-013
 0.910945E-013
 0.910946E-013
 0.910946E-013
 0.910947E-013
 0.910948E-013
 0.910949E-013
 0.910949E-013
 0.910950E-013
 0.910951E-013
 0.910951E-013
 0.910952E-013
 0.910953E-013
 0.910954E-013
 0.910954E-013
 0.910955E-013
 0.910956E-013
 0.910956E-013
 0.910957E-013
 0.910957E-013
 0.910958E-013
 0.910958E-013
 0.910959E-013
 0.910959E-013
 0.910959E-013
 0.910960E-013
 0.910960E-013
 0.910960E-013
 0.910960E-013
 0.910960E-013
 0.910960E-013
 0.910959E-013
 0.910959E-013
 0.910959E-013
 0.910958E-013
 0.910958E-013
 0.910957E-013
 0.910957E-013
 0.910956E-013
 0.910956E-013
 0.910955E-013
 0.910954E-013
 0.910954E-013
 0.910953E-013
 0.910952E-013
 0.910952E-013
 0.910951E-013
 0.910950E-013
 0.910949E-013
 0.910949E-013
 0.910948E-013
 0.910947E-013
 0.910947E-013
 0.910946E-013
 0.910945E-013
 0.910945E-013
 0.910944E-013
 0.910944E-013
 0.910943E-013
 0.910943E-013
 0.910942E-013
 0.910942E-013
 0.910941E-013
 0.910941E-013
 0.910941E-013
 0.910940E-013
 0.910940E-013
 0.910940E-013
 0.910940E-013
 0.910940E-013
 0.910939E-013
 0.910939E-013
 0.910939E-013
 0.910939E-013
 0.910939E-013
 0.910939E-013
 0.910939E-013
 0.910939E-013
 0.910939E-013
 0.910939E-013
 0.910938E-013
 0.910938E-013
 0.910938E-013
 0.910938E-013
 0.910938E-013
 0.910938E-013
 0.910938E-013
 0.910940E-013
 0.910916E-013
 0.911146E-013
 0.909466E-013
 0.918052E-013
 0.919004E-013
 0.909265E-013
 0.911175E-013
 0.910913E-013
 0.910941E-013
 0.910938E-013
 0.910938E-013
 0.910938E-013
 0.910938E-013
 0.910938E-013
 0.910938E-013
 0.910938E-013
 0.910938E-013
 0.910939E-013
 0.910939E-013
 0.910939E-013
 0.910939E-013
 0.910939E-013
 0.910939E-013
 0.910939E-013
 0.910939E-013
 0.910940E-013
 0.910940E-013
 0.910940E-013
 0.910940E-013
 0.910940E-013
 0.910941E-013
 0.910941E-013
 0.910942E-013
 0.910942E-013
 0.910942E-013
 0.910943E-013
 0.910943E-013
 0.910944E-013
 0.910945E-013
 0.910945E-013
 0.910946E-013
 0.910947E-013
 0.910947E-013
 0.910948E-013
 0.910949E-013
 0.910950E-013
 0.910950E-013
 0.910951E-013
 0.910952E-013
 0.910953E-013
 0.910954E-013
 0.910955E-013
 0.910956E-013
 0.910957E-013
 0.910957E-013
 0.910958E-013
 0.910959E-013
 0.910960E-013
 0.910960E-013
 0.910961E-013
 0.910962E-013
 0.910962E-013
 0.910963E-013
 0.910963E-013
 0.910963E-013
 0.910964E-013
 0.910964E-013
 0.910964E-013
 0.910964E-013
 0.910964E-013
 0.910964E-013
 0.910963E-013
 0.910963E-013
 0.910963E-013
 0.910962E-013
 0.910962E-013
 0.910961E-013
 0.910960E-013
 0.910960E-013
 0.910959E-013
 0.910958E-013
 0.910957E-013
 0.910957E-013
 0.910956E-013
 0.910955E-013
 0.910954E-013
 0.910953E-013
 0.910952E-013
 0.910951E-013
 0.910951E-013
 0.910950E-013
 0.910949E-013
 0.910948E-013
 0.910947E-013
 0.910947E-013
 0.910946E-013
 0.910945E-013
 0.910945E-013
 0.910944E-013
 0.910943E-013
 0.910943E-013
 0.910942E-013
 0.910942E-013
 0.910942E-013
 0.910941E-013
 0.910941E-013
 0.910941E-013
 0.910940E-013
 0.910940E-013
 0.910940E-013
 0.910940E-013
 0.910939E-013
 0.910939E-013
 0.910939E-013
 0.910939E-013
 0.910939E-013
 0.910939E-013
 0.910939E-013
 0.910939E-013
 0.910939E-013
 0.910939E-013
 0.910938E-013
 0.910938E-013
 0.910938E-013
 0.910938E-013
 0.910938E-013
 0.910938E-013
 0.910941E-013
 0.910913E-013
 0.911175E-013
 0.909266E-013
 0.919003E-013
 0.919953E-013
 0.909066E-013
 0.911203E-013
 0.910910E-013
 0.910941E-013
 0.910938E-013
 0.910938E-013
 0.910938E-013
 0.910938E-013
 0.910938E-013
 0.910938E-013
 0.910938E-013
 0.910939E-013
 0.910939E-013
 0.910939E-013
 0.910939E-013
 0.910939E-013
 0.910939E-013
 0.910939E-013
 0.910939E-013
 0.910940E-013
 0.910940E-013
 0.910940E-013
 0.910940E-013
 0.910941E-013
 0.910941E-013
 0.910941E-013
 0.910942E-013
 0.910942E-013
 0.910943E-013
 0.910943E-013
 0.910944E-013
 0.910944E-013
 0.910945E-013
 0.910946E-013
 0.910947E-013
 0.910947E-013
 0.910948E-013
 0.910949E-013
 0.910950E-013
 0.910951E-013
 0.910952E-013
 0.910953E-013
 0.910954E-013
 0.910955E-013
 0.910956E-013
 0.910957E-013
 0.910958E-013
 0.910959E-013
 0.910960E-013
 0.910961E-013
 0.910962E-013
 0.910963E-013
 0.910964E-013
 0.910965E-013
 0.910965E-013
 0.910966E-013
 0.910967E-013
 0.910967E-013
 0.910968E-013
 0.910968E-013
 0.910968E-013
 0.910969E-013
 0.910969E-013
 0.910969E-013
 0.910969E-013
 0.910968E-013
 0.910968E-013
 0.910968E-013
 0.910967E-013
 0.910967E-013
 0.910966E-013
 0.910965E-013
 0.910965E-013
 0.910964E-013
 0.910963E-013
 0.910962E-013
 0.910961E-013
 0.910960E-013
 0.910959E-013
 0.910958E-013
 0.910957E-013
 0.910956E-013
 0.910955E-013
 0.910954E-013
 0.910953E-013
 0.910952E-013
 0.910951E-013
 0.910950E-013
 0.910949E-013
 0.910948E-013
 0.910947E-013
 0.910947E-013
 0.910946E-013
 0.910945E-013
 0.910944E-013
 0.910944E-013
 0.910943E-013
 0.910943E-013
 0.910942E-013
 0.910942E-013
 0.910941E-013
 0.910941E-013
 0.910941E-013
 0.910940E-013
 0.910940E-013
 0.910940E-013
 0.910940E-013
 0.910939E-013
 0.910939E-013
 0.910939E-013
 0.910939E-013
 0.910939E-013
 0.910939E-013
 0.910939E-013
 0.910939E-013
 0.910939E-013
 0.910939E-013
 0.910938E-013
 0.910938E-013
 0.910938E-013
 0.910938E-013
 0.910938E-013
 0.910941E-013
 0.910910E-013
 0.911203E-013
 0.909066E-013
 0.919952E-013
 0.920900E-013
 0.908867E-013
 0.911232E-013
 0.910907E-013
 0.910941E-013
 0.910938E-013
 0.910938E-013
 0.910938E-013
 0.910938E-013
 0.910938E-013
 0.910938E-013
 0.910939E-013
 0.910939E-013
 0.910939E-013
 0.910939E-013
 0.910939E-013
 0.910939E-013
 0.910939E-013
 0.910939E-013
 0.910940E-013
 0.910940E-013
 0.910940E-013
 0.910940E-013
 0.910941E-013
 0.910941E-013
 0.910941E-013
 0.910942E-013
 0.910942E-013
 0.910943E-013
 0.910944E-013
 0.910944E-013
 0.910945E-013
 0.910946E-013
 0.910946E-013
 0.910947E-013
 0.910948E-013
 0.910949E-013
 0.910950E-013
 0.910951E-013
 0.910952E-013
 0.910953E-013
 0.910954E-013
 0.910956E-013
 0.910957E-013
 0.910958E-013
 0.910959E-013
 0.910960E-013
 0.910962E-013
 0.910963E-013
 0.910964E-013
 0.910965E-013
 0.910966E-013
 0.910967E-013
 0.910968E-013
 0.910969E-013
 0.910970E-013
 0.910971E-013
 0.910972E-013
 0.910973E-013
 0.910973E-013
 0.910974E-013
 0.910974E-013
 0.910974E-013
 0.910974E-013
 0.910974E-013
 0.910974E-013
 0.910974E-013
 0.910974E-013
 0.910973E-013
 0.910973E-013
 0.910972E-013
 0.910971E-013
 0.910970E-013
 0.910969E-013
 0.910969E-013
 0.910967E-013
 0.910966E-013
 0.910965E-013
 0.910964E-013
 0.910963E-013
 0.910962E-013
 0.910960E-013
 0.910959E-013
 0.910958E-013
 0.910957E-013
 0.910956E-013
 0.910954E-013
 0.910953E-013
 0.910952E-013
 0.910951E-013
 0.910950E-013
 0.910949E-013
 0.910948E-013
 0.910947E-013
 0.910946E-013
 0.910946E-013
 0.910945E-013
 0.910944E-013
 0.910944E-013
 0.910943E-013
 0.910942E-013
 0.910942E-013
 0.910942E-013
 0.910941E-013
 0.910941E-013
 0.910940E-013
 0.910940E-013
 0.910940E-013
 0.910940E-013
 0.910939E-013
 0.910939E-013
 0.910939E-013
 0.910939E-013
 0.910939E-013
 0.910939E-013
 0.910939E-013
 0.910939E-013
 0.910939E-013
 0.910939E-013
 0.910939E-013
 0.910938E-013
 0.910938E-013
 0.910938E-013
 0.910941E-013
 0.910907E-013
 0.911232E-013
 0.908867E-013
 0.920899E-013
 0.921845E-013
 0.908668E-013
 0.911260E-013
 0.910904E-013
 0.910941E-013
 0.910938E-013
 0.910938E-013
 0.910938E-013
 0.910938E-013
 0.910938E-013
 0.910939E-013
 0.910939E-013
 0.910939E-013
 0.910939E-013
 0.910939E-013
 0.910939E-013
 0.910939E-013
 0.910939E-013
 0.910940E-013
 0.910940E-013
 0.910940E-013
 0.910940E-013
 0.910941E-013
 0.910941E-013
 0.910942E-013
 0.910942E-013
 0.910943E-013
 0.910943E-013
 0.910944E-013
 0.910945E-013
 0.910945E-013
 0.910946E-013
 0.910947E-013
 0.910948E-013
 0.910949E-013
 0.910950E-013
 0.910951E-013
 0.910952E-013
 0.910953E-013
 0.910955E-013
 0.910956E-013
 0.910957E-013
 0.910959E-013
 0.910960E-013
 0.910962E-013
 0.910963E-013
 0.910964E-013
 0.910966E-013
 0.910967E-013