# vtk DataFile Version 3.0
Solution data
ASCII
DATASET STRUCTURED_GRID
DIMENSIONS 128 128 1
POINTS 16384  double
      0.000004      0.000004      0.000000
      0.000012      0.000004      0.000000
      0.000020      0.000004      0.000000
      0.000027      0.000004      0.000000
      0.000035      0.000004      0.000000
      0.000043      0.000004      0.000000
      0.000051      0.000004      0.000000
      0.000059      0.000004      0.000000
      0.000066      0.000004      0.000000
      0.000074      0.000004      0.000000
      0.000082      0.000004      0.000000
      0.000090      0.000004      0.000000
      0.000098      0.000004      0.000000
      0.000105      0.000004      0.000000
      0.000113      0.000004      0.000000
      0.000121      0.000004      0.000000
      0.000129      0.000004      0.000000
      0.000137      0.000004      0.000000
      0.000145      0.000004      0.000000
      0.000152      0.000004      0.000000
      0.000160      0.000004      0.000000
      0.000168      0.000004      0.000000
      0.000176      0.000004      0.000000
      0.000184      0.000004      0.000000
      0.000191      0.000004      0.000000
      0.000199      0.000004      0.000000
      0.000207      0.000004      0.000000
      0.000215      0.000004      0.000000
      0.000223      0.000004      0.000000
      0.000230      0.000004      0.000000
      0.000238      0.000004      0.000000
      0.000246      0.000004      0.000000
      0.000254      0.000004      0.000000
      0.000262      0.000004      0.000000
      0.000270      0.000004      0.000000
      0.000277      0.000004      0.000000
      0.000285      0.000004      0.000000
      0.000293      0.000004      0.000000
      0.000301      0.000004      0.000000
      0.000309      0.000004      0.000000
      0.000316      0.000004      0.000000
      0.000324      0.000004      0.000000
      0.000332      0.000004      0.000000
      0.000340      0.000004      0.000000
      0.000348      0.000004      0.000000
      0.000355      0.000004      0.000000
      0.000363      0.000004      0.000000
      0.000371      0.000004      0.000000
      0.000379      0.000004      0.000000
      0.000387      0.000004      0.000000
      0.000395      0.000004      0.000000
      0.000402      0.000004      0.000000
      0.000410      0.000004      0.000000
      0.000418      0.000004      0.000000
      0.000426      0.000004      0.000000
      0.000434      0.000004      0.000000
      0.000441      0.000004      0.000000
      0.000449      0.000004      0.000000
      0.000457      0.000004      0.000000
      0.000465      0.000004      0.000000
      0.000473      0.000004      0.000000
      0.000480      0.000004      0.000000
      0.000488      0.000004      0.000000
      0.000496      0.000004      0.000000
      0.000504      0.000004      0.000000
      0.000512      0.000004      0.000000
      0.000520      0.000004      0.000000
      0.000527      0.000004      0.000000
      0.000535      0.000004      0.000000
      0.000543      0.000004      0.000000
      0.000551      0.000004      0.000000
      0.000559      0.000004      0.000000
      0.000566      0.000004      0.000000
      0.000574      0.000004      0.000000
      0.000582      0.000004      0.000000
      0.000590      0.000004      0.000000
      0.000598      0.000004      0.000000
      0.000605      0.000004      0.000000
      0.000613      0.000004      0.000000
      0.000621      0.000004      0.000000
      0.000629      0.000004      0.000000
      0.000637      0.000004      0.000000
      0.000645      0.000004      0.000000
      0.000652      0.000004      0.000000
      0.000660      0.000004      0.000000
      0.000668      0.000004      0.000000
      0.000676      0.000004      0.000000
      0.000684      0.000004      0.000000
      0.000691      0.000004      0.000000
      0.000699      0.000004      0.000000
      0.000707      0.000004      0.000000
      0.000715      0.000004      0.000000
      0.000723      0.000004      0.000000
      0.000730      0.000004      0.000000
      0.000738      0.000004      0.000000
      0.000746      0.000004      0.000000
      0.000754      0.000004      0.000000
      0.000762      0.000004      0.000000
      0.000770      0.000004      0.000000
      0.000777      0.000004      0.000000
      0.000785      0.000004      0.000000
      0.000793      0.000004      0.000000
      0.000801      0.000004      0.000000
      0.000809      0.000004      0.000000
      0.000816      0.000004      0.000000
      0.000824      0.000004      0.000000
      0.000832      0.000004      0.000000
      0.000840      0.000004      0.000000
      0.000848      0.000004      0.000000
      0.000855      0.000004      0.000000
      0.000863      0.000004      0.000000
      0.000871      0.000004      0.000000
      0.000879      0.000004      0.000000
      0.000887      0.000004      0.000000
      0.000895      0.000004      0.000000
      0.000902      0.000004      0.000000
      0.000910      0.000004      0.000000
      0.000918      0.000004      0.000000
      0.000926      0.000004      0.000000
      0.000934      0.000004      0.000000
      0.000941      0.000004      0.000000
      0.000949      0.000004      0.000000
      0.000957      0.000004      0.000000
      0.000965      0.000004      0.000000
      0.000973      0.000004      0.000000
      0.000980      0.000004      0.000000
      0.000988      0.000004      0.000000
      0.000996      0.000004      0.000000
      0.000004      0.000012      0.000000
      0.000012      0.000012      0.000000
      0.000020      0.000012      0.000000
      0.000027      0.000012      0.000000
      0.000035      0.000012      0.000000
      0.000043      0.000012      0.000000
      0.000051      0.000012      0.000000
      0.000059      0.000012      0.000000
      0.000066      0.000012      0.000000
      0.000074      0.000012      0.000000
      0.000082      0.000012      0.000000
      0.000090      0.000012      0.000000
      0.000098      0.000012      0.000000
      0.000105      0.000012      0.000000
      0.000113      0.000012      0.000000
      0.000121      0.000012      0.000000
      0.000129      0.000012      0.000000
      0.000137      0.000012      0.000000
      0.000145      0.000012      0.000000
      0.000152      0.000012      0.000000
      0.000160      0.000012      0.000000
      0.000168      0.000012      0.000000
      0.000176      0.000012      0.000000
      0.000184      0.000012      0.000000
      0.000191      0.000012      0.000000
      0.000199      0.000012      0.000000
      0.000207      0.000012      0.000000
      0.000215      0.000012      0.000000
      0.000223      0.000012      0.000000
      0.000230      0.000012      0.000000
      0.000238      0.000012      0.000000
      0.000246      0.000012      0.000000
      0.000254      0.000012      0.000000
      0.000262      0.000012      0.000000
      0.000270      0.000012      0.000000
      0.000277      0.000012      0.000000
      0.000285      0.000012      0.000000
      0.000293      0.000012      0.000000
      0.000301      0.000012      0.000000
      0.000309      0.000012      0.000000
      0.000316      0.000012      0.000000
      0.000324      0.000012      0.000000
      0.000332      0.000012      0.000000
      0.000340      0.000012      0.000000
      0.000348      0.000012      0.000000
      0.000355      0.000012      0.000000
      0.000363      0.000012      0.000000
      0.000371      0.000012      0.000000
      0.000379      0.000012      0.000000
      0.000387      0.000012      0.000000
      0.000395      0.000012      0.000000
      0.000402      0.000012      0.000000
      0.000410      0.000012      0.000000
      0.000418      0.000012      0.000000
      0.000426      0.000012      0.000000
      0.000434      0.000012      0.000000
      0.000441      0.000012      0.000000
      0.000449      0.000012      0.000000
      0.000457      0.000012      0.000000
      0.000465      0.000012      0.000000
      0.000473      0.000012      0.000000
      0.000480      0.000012      0.000000
      0.000488      0.000012      0.000000
      0.000496      0.000012      0.000000
      0.000504      0.000012      0.000000
      0.000512      0.000012      0.000000
      0.000520      0.000012      0.000000
      0.000527      0.000012      0.000000
      0.000535      0.000012      0.000000
      0.000543      0.000012      0.000000
      0.000551      0.000012      0.000000
      0.000559      0.000012      0.000000
      0.000566      0.000012      0.000000
      0.000574      0.000012      0.000000
      0.000582      0.000012      0.000000
      0.000590      0.000012      0.000000
      0.000598      0.000012      0.000000
      0.000605      0.000012      0.000000
      0.000613      0.000012      0.000000
      0.000621      0.000012      0.000000
      0.000629      0.000012      0.000000
      0.000637      0.000012      0.000000
      0.000645      0.000012      0.000000
      0.000652      0.000012      0.000000
      0.000660      0.000012      0.000000
      0.000668      0.000012      0.000000
      0.000676      0.000012      0.000000
      0.000684      0.000012      0.000000
      0.000691      0.000012      0.000000
      0.000699      0.000012      0.000000
      0.000707      0.000012      0.000000
      0.000715      0.000012      0.000000
      0.000723      0.000012      0.000000
      0.000730      0.000012      0.000000
      0.000738      0.000012      0.000000
      0.000746      0.000012      0.000000
      0.000754      0.000012      0.000000
      0.000762      0.000012      0.000000
      0.000770      0.000012      0.000000
      0.000777      0.000012      0.000000
      0.000785      0.000012      0.000000
[...]
POINT_DATA 16384
SCALARS rhoe double
LOOKUP_TABLE default
 0.914002E-013
 0.913060E-013
 0.914414E-013
 0.915345E-013
 0.916332E-013
 0.917312E-013
 0.918290E-013
 0.919266E-013
 0.920240E-013
 0.921213E-013
 0.922183E-013
 0.923151E-013
 0.924117E-013
 0.925081E-013
 0.926041E-013
 0.926999E-013
 0.927954E-013
 0.928906E-013
 0.929853E-013
 0.930797E-013
 0.931737E-013
 0.932671E-013
 0.933601E-013
 0.934525E-013
 0.935442E-013
 0.936353E-013
 0.937257E-013
 0.938153E-013
 0.939040E-013
 0.939918E-013
 0.940786E-013
 0.941644E-013
 0.942490E-013
 0.943323E-013
 0.944143E-013
 0.944950E-013
 0.945741E-013
 0.946516E-013
 0.947274E-013
 0.948015E-013
 0.948736E-013
 0.949437E-013
 0.950118E-013
 0.950776E-013
 0.951411E-013
 0.952022E-013
 0.952608E-013
 0.953168E-013
 0.953701E-013
 0.954206E-013
 0.954682E-013
 0.955128E-013
 0.955543E-013
 0.955927E-013
 0.956278E-013
 0.956597E-013
 0.956881E-013
 0.957132E-013
 0.957347E-013
 0.957528E-013
 0.957673E-013
 0.957781E-013
 0.957854E-013
 0.957890E-013
 0.957890E-013
 0.957854E-013
 0.957781E-013
 0.957672E-013
 0.957527E-013
 0.957347E-013
 0.957131E-013
 0.956881E-013
 0.956596E-013
 0.956277E-013
 0.955926E-013
 0.955542E-013
 0.955127E-013
 0.954681E-013
 0.954205E-013
 0.953700E-013
 0.953167E-013
 0.952607E-013
 0.952021E-013
 0.951410E-013
 0.950774E-013
 0.950116E-013
 0.949436E-013
 0.948734E-013
 0.948013E-013
 0.947273E-013
 0.946514E-013
 0.945739E-013
 0.944948E-013
 0.944142E-013
 0.943321E-013
 0.942488E-013
 0.941642E-013
 0.940784E-013
 0.939916E-013
 0.939038E-013
 0.938151E-013
 0.937255E-013
 0.936351E-013
 0.935440E-013
 0.934523E-013
 0.933599E-013
 0.932669E-013
 0.931735E-013
 0.930795E-013
 0.929852E-013
 0.928904E-013
 0.927953E-013
 0.926998E-013
 0.926040E-013
 0.925079E-013
 0.924116E-013
 0.923150E-013
 0.922182E-013
 0.921212E-013
 0.920239E-013
 0.919265E-013
 0.918289E-013
 0.917311E-013
 0.916332E-013
 0.915344E-013
 0.914413E-013
 0.913060E-013
 0.914002E-013
 0.913060E-013
 0.909876E-013
 0.910259E-013
 0.909940E-013
 0.909723E-013
 0.909495E-013
 0.909269E-013
 0.909043E-013
 0.908818E-013
 0.908594E-013
 0.908370E-013
 0.908146E-013
 0.907924E-013
 0.907702E-013
 0.907481E-013
 0.907260E-013
 0.907041E-013
 0.906822E-013
 0.906605E-013
 0.906388E-013
 0.906172E-013
 0.905958E-013
 0.905745E-013
 0.905534E-013
 0.905324E-013
 0.905116E-013
 0.904909E-013
 0.904705E-013
 0.904502E-013
 0.904302E-013
 0.904104E-013
 0.903909E-013
 0.903716E-013
 0.903527E-013
 0.903340E-013
 0.903157E-013
 0.902977E-013
 0.902801E-013
 0.902629E-013
 0.902462E-013
 0.902298E-013
 0.902139E-013
 0.901985E-013
 0.901837E-013
 0.901693E-013
 0.901555E-013
 0.901422E-013
 0.901296E-013
 0.901176E-013
 0.901062E-013
 0.900955E-013
 0.900854E-013
 0.900761E-013
 0.900674E-013
 0.900595E-013
 0.900523E-013
 0.900459E-013
 0.900403E-013
 0.900355E-013
 0.900314E-013
 0.900281E-013
 0.900257E-013
 0.900241E-013
 0.900232E-013
 0.900232E-013
 0.900241E-013
 0.900257E-013
 0.900282E-013
 0.900314E-013
 0.900355E-013
 0.900403E-013
 0.900460E-013
 0.900524E-013
 0.900595E-013
 0.900674E-013
 0.900761E-013
 0.900854E-013
 0.900955E-013
 0.901062E-013
 0.901176E-013
 0.901296E-013
 0.901423E-013
 0.901555E-013
 0.901693E-013
 0.901837E-013
 0.901986E-013
 0.902140E-013
 0.902299E-013
 0.902462E-013
 0.902630E-013
 0.902802E-013
 0.902978E-013
 0.903157E-013
 0.903341E-013
 0.903527E-013
 0.903717E-013
 0.903909E-013
 0.904104E-013
 0.904302E-013
 0.904503E-013
 0.904705E-013
 0.904910E-013
 0.905116E-013
 0.905324E-013
 0.905534E-013
 0.905746E-013
 0.905959E-013
 0.906173E-013
 0.906388E-013
 0.906605E-013
 0.906822E-013
 0.907041E-013
 0.907261E-013
 0.907481E-013
 0.907702E-013
 0.907924E-013
 0.908147E-013
 0.908370E-013
 0.908594E-013
 0.908818E-013
 0.909044E-013
 0.909269E-013
 0.909496E-013
 0.909723E-013
 0.909941E-013
 0.910259E-013
 0.909876E-013
 0.913060E-013
 0.914414E-013
 0.910259E-013
 0.911172E-013
 0.911077E-013
 0.911128E-013
 0.911162E-013
 0.911198E-013
 0.911233E-013
 0.911269E-013
 0.911304E-013
 0.911339E-013
 0.911374E-013
 0.911409E-013
 0.911444E-013
 0.911478E-013
 0.911513E-013
 0.911547E-013
 0.911582E-013
 0.911616E-013
 0.911650E-013
 0.911684E-013
 0.911717E-013
 0.911751E-013
 0.911784E-013
 0.911817E-013
 0.911849E-013
 0.911882E-013
 0.911914E-013
 0.911945E-013
 0.911977E-013
 0.912008E-013
 0.912039E-013
 0.912069E-013
 0.912099E-013
 0.912128E-013
 0.912157E-013
 0.912185E-013
 0.912213E-013
 0.912240E-013
 0.912266E-013
 0.912292E-013
 0.912317E-013
 0.912341E-013
 0.912365E-013
 0.912387E-013
 0.912409E-013
 0.912430E-013
 0.912450E-013
 0.912469E-013
 0.912487E-013
 0.912504E-013
 0.912520E-013
 0.912535E-013
 0.912549E-013
 0.912561E-013
 0.912573E-013
 0.912583E-013
 0.912592E-013
 0.912599E-013
 0.912606E-013
 0.912611E-013
 0.912615E-013
 0.912618E-013
 0.912619E-013
 0.912619E-013
 0.912618E-013
 0.912615E-013
 0.912611E-013
 0.912606E-013
 0.912599E-013
 0.912592E-013
 0.912583E-013
 0.912573E-013
 0.912561E-013
 0.912549E-013
 0.912535E-013
 0.912520E-013
 0.912504E-013
 0.912487E-013
 0.912469E-013
 0.912450E-013
 0.912430E-013
 0.912409E-013
 0.912387E-013
 0.912365E-013
 0.912341E-013
 0.912317E-013
 0.912292E-013
 0.912266E-013
 0.912240E-013
 0.912213E-013
 0.912185E-013
 0.912157E-013
 0.912128E-013
 0.912099E-013
 0.912069E-013
 0.912039E-013
 0.912008E-013
 0.911977E-013
 0.911945E-013
 0.911914E-013
 0.911882E-013
 0.911849E-013
 0.911817E-013
 0.911784E-013
 0.911751E-013
 0.911717E-013
 0.911684E-013
 0.911650E-013
 0.911616E-013
 0.911582E-013
 0.911547E-013
 0.911513E-013
 0.911478E-013
 0.911444E-013
 0.911409E-013
 0.911374E-013
 0.911339E-013
 0.911304E-013
 0.911269E-013
 0.911233E-013
 0.911198E-013
 0.911162E-013
 0.911128E-013
 0.911077E-013
 0.911172E-013
 0.910259E-013
 0.914413E-013
 0.915345E-013
 0.909940E-013
 0.911077E-013
 0.910903E-013
 0.910918E-013
 0.910912E-013
 0.910908E-013
 0.910904E-013
 0.910899E-013
 0.910895E-013
 0.910891E-013
 0.910887E-013
 0.910883E-013
 0.910879E-013
 0.910875E-013
 0.910871E-013
 0.910866E-013
 0.910862E-013
 0.910859E-013
 0.910855E-013
 0.910851E-013
 0.910847E-013
 0.910843E-013
 0.910839E-013
 0.910835E-013
 0.910832E-013
 0.910828E-013
 0.910824E-013
 0.910821E-013
 0.910817E-013
 0.910814E-013
 0.910810E-013
 0.910807E-013
 0.910804E-013
 0.910801E-013
 0.910797E-013
 0.910794E-013
 0.910791E-013
 0.910789E-013
 0.910786E-013
 0.910783E-013
 0.910781E-013
 0.910778E-013
 0.910776E-013
 0.910773E-013
 0.910771E-013
 0.910769E-013
 0.910767E-013
 0.910765E-013
 0.910764E-013
 0.910762E-013
 0.910760E-013
 0.910759E-013
 0.910758E-013
 0.910757E-013
 0.910756E-013
 0.910755E-013
 0.910754E-013
 0.910753E-013
 0.910753E-013
 0.910752E-013
 0.910752E-013
 0.910751E-013
 0.910751E-013
 0.910751E-013
 0.910751E-013
 0.910752E-013
 0.910752E-013
 0.910753E-013
 0.910753E-013
 0.910754E-013
 0.910755E-013
 0.910756E-013
 0.910757E-013
 0.910758E-013
 0.910759E-013
 0.910760E-013
 0.910762E-013
 0.910764E-013
 0.910765E-013
 0.910767E-013
 0.910769E-013
 0.910771E-013
 0.910773E-013
 0.910776E-013
 0.910778E-013
 0.910781E-013
 0.910783E-013
 0.910786E-013
 0.910789E-013
 0.910791E-013
 0.910794E-013
 0.910797E-013
 0.910801E-013
 0.910804E-013
 0.910807E-013
 0.910810E-013
 0.910814E-013
 0.910817E-013
 0.910821E-013
 0.910824E-013
 0.910828E-013
 0.910832E-013
 0.910835E-013
 0.910839E-013
 0.910843E-013
 0.910847E-013
 0.910851E-013
 0.910855E-013
 0.910859E-013
 0.910863E-013
 0.910867E-013
 0.910871E-013
 0.910875E-013
 0.910879E-013
 0.910883E-013
 0.910887E-013
 0.910891E-013
 0.910895E-013
 0.910899E-013
 0.910904E-013
 0.910908E-013
 0.910912E-013
 0.910918E-013
 0.910903E-013
 0.911077E-013
 0.909941E-013
 0.915344E-013
 0.916332E-013
 0.909723E-013
 0.911128E-013
 0.910918E-013
 0.910943E-013
 0.910941E-013
 0.910941E-013
 0.910942E-013
 0.910942E-013
 0.910942E-013
 0.910943E-013
 0.910943E-013
 0.910944E-013
 0.910944E-013
 0.910944E-013
 0.910945E-013
 0.910945E-013
 0.910946E-013
 0.910946E-013
 0.910947E-013
 0.910947E-013
 0.910948E-013
 0.910948E-013
 0.910949E-013
 0.910949E-013
 0.910950E-013
 0.910950E-013
 0.910951E-013
 0.910951E-013
 0.910952E-013
 0.910952E-013
 0.910953E-013
 0.910953E-013
 0.910954E-013
 0.910955E-013
 0.910955E-013
 0.910956E-013
 0.910957E-013
 0.910957E-013
 0.910958E-013
 0.910959E-013
 0.910959E-013
 0.910960E-013
 0.910961E-013
 0.910961E-013
 0.910962E-013
 0.910963E-013
 0.910963E-013
 0.910964E-013
 0.910965E-013
 0.910965E-013
 0.910966E-013
 0.910966E-013
 0.910967E-013
 0.910967E-013
 0.910968E-013
 0.910968E-013
 0.910968E-013
 0.910969E-013
 0.910969E-013
 0.910969E-013
 0.910969E-013
 0.910970E-013
 0.910970E-013
 0.910970E-013
 0.910970E-013
 0.910969E-013
 0.910969E-013
 0.910969E-013
 0.910969E-013
 0.910968E-013
 0.910968E-013
 0.910968E-013
 0.910967E-013
 0.910967E-013
 0.910966E-013
 0.910966E-013
 0.910965E-013
 0.910965E-013
 0.910964E-013
 0.910963E-013
 0.910963E-013
 0.910962E-013
 0.910961E-013
 0.910961E-013
 0.910960E-013
 0.910959E-013
 0.910959E-013
 0.910958E-013
 0.910957E-013
 0.910957E-013
 0.910956E-013
 0.910955E-013
 0.910955E-013
 0.910954E-013
 0.910953E-013
 0.910953E-013
 0.910952E-013
 0.910952E-013
 0.910951E-013
 0.910951E-013
 0.910950E-013
 0.910950E-013
 0.910949E-013
 0.910949E-013
 0.910948E-013
 0.910948E-013
 0.910947E-013
 0.910947E-013
 0.910946E-013
 0.910946E-013
 0.910945E-013
 0.910945E-013
 0.910945E-013
 0.910944E-013
 0.910944E-013
 0.910943E-013
 0.910943E-013
 0.910942E-013
 0.910942E-013
 0.910942E-013
 0.910941E-013
 0.910941E-013
 0.910943E-013
 0.910918E-013
 0.911128E-013
 0.909723E-013
 0.916332E-013
 0.917312E-013
 0.909495E-013
 0.911162E-013
 0.910912E-013
 0.910941E-013
 0.910938E-013
 0.910938E-013
 0.910938E-013
 0.910938E-013
 0.910938E-013
 0.910938E-013
 0.910938E-013
 0.910938E-013
 0.910938E-013
 0.910938E-013
 0.910938E-013
 0.910938E-013
 0.910938E-013
 0.910938E-013
 0.910938E-013
 0.910938E-013
 0.910938E-013
 0.910938E-013
 0.910938E-013
 0.910939E-013
 0.910939E-013
 0.910939E-013
 0.910939E-013
 0.910939E-013
 0.910939E-013
 0.910940E-013
 0.910940E-013
 0.910940E-013
 0.910941E-013
 0.910941E-013
 0.910941E-013
 0.910942E-013
 0.910942E-013
 0.910942E-013
 0.910943E-013
 0.910943E-013
 0.910944E-013
 0.910944E-013
 0.910945E-013
 0.910945E-013
 0.910946E-013
 0.910946E-013
 0.910947E-013
 0.910947E-013
 0.910948E-013
 0.910948E-013
 0.910949E-013
 0.910949E-013
 0.910949E-013
 0.910950E-013
 0.910950E-013
 0.910951E-013
 0.910951E-013
 0.910951E-013
 0.910951E-013
 0.910951E-013
 0.910952E-013
 0.910952E-013
 0.910952E-013
 0.910952E-013
 0.910952E-013
 0.910952E-013
 0.910952E-013
 0.910951E-013
 0.910951E-013
 0.910951E-013
 0.910951E-013
 0.910950E-013
 0.910950E-013
 0.910949E-013
 0.910949E-013
 0.910949E-013
 0.910948E-013
 0.910948E-013
 0.910947E-013
 0.910947E-013
 0.910946E-013
 0.910946E-013
 0.910945E-013
 0.910945E-013
 0.910944E-013
 0.910944E-013
 0.910943E-013
 0.910943E-013
 0.910942E-013
 0.910942E-013
 0.910942E-013
 0.910941E-013
 0.910941E-013
 0.910941E-013
 0.910940E-013
 0.910940E-013
 0.910940E-013
 0.910939E-013
 0.910939E-013
 0.910939E-013
 0.910939E-013
 0.910939E-013
 0.910939E-013
 0.910938E-013
 0.910938E-013
 0.910938E-013
 0.910938E-013
 0.910938E-013
 0.910938E-013
 0.910938E-013
 0.910938E-013
 0.910938E-013
 0.910938E-013
 0.910938E-013
 0.910938E-013
 0.910938E-013
 0.910938E-013
 0.910938E-013
 0.910938E-013
 0.910938E-013
 0.910938E-013
 0.910938E-013
 0.910941E-013
 0.910912E-013
 0.911162E-013
 0.909496E-013
 0.917311E-013
 0.918290E-013
 0.909269E-013
 0.911198E-013
 0.910908E-013
 0.910941E-013
 0.910938E-013
 0.910938E-013
 0.910938E-013
 0.910938E-013
 0.910938E-013
 0.910938E-013
 0.910938E-013
 0.910938E-013
 0.910938E-013
 0.910939E-013
 0.910939E-013
 0.910939E-013
 0.910939E-013
 0.910939E-013
 0.910939E-013
 0.910939E-013
 0.910939E-013
 0.910939E-013
 0.910939E-013
 0.910940E-013
 0.910940E-013
 0.910940E-013
 0.910940E-013
 0.910941E-013
 0.910941E-013
 0.910941E-013
 0.910942E-013
 0.910942E-013
 0.910942E-013
 0.910943E-013
 0.910943E-013
 0.910944E-013
 0.910944E-013
 0.910945E-013
 0.910945E-013
 0.910946E-013
 0.910946E-013
 0.910947E-013
 0.910948E-013
 0.910948E-013
 0.910949E-013
 0.910949E-013
 0.910950E-013
 0.910951E-013
 0.910951E-013
 0.910952E-013
 0.910952E-013
 0.910953E-013
 0.910953E-013
 0.910954E-013
 0.910954E-013
 0.910955E-013
 0.910955E-013
 0.910956E-013
 0.910956E-013
 0.910956E-013
 0.910956E-013
 0.910956E-013
 0.910956E-013
 0.910956E-013
 0.910956E-013
 0.910956E-013
 0.910956E-013
 0.910956E-013
 0.910956E-013
 0.910955E-013
 0.910955E-013
 0.910954E-013
 0.910954E-013
 0.910953E-013
 0.910953E-013
 0.910952E-013
 0.910952E-013
 0.910951E-013
 0.910951E-013
 0.910950E-013
 0.910949E-013
 0.910949E-013
 0.910948E-013
 0.910948E-013
 0.910947E-013
 0.910946E-013
 0.910946E-013
 0.910945E-013
 0.910945E-013
 0.910944E-013
 0.910944E-013
 0.910943E-013
 0.910943E-013
 0.910942E-013
 0.910942E-013
 0.910942E-013
 0.910941E-013
 0.910941E-013
 0.910941E-013
 0.910940E-013
 0.910940E-013
 0.910940E-013
 0.910940E-013
 0.910940E-013
 0.910939E-013
 0.910939E-013
 0.910939E-013
 0.910939E-013
 0.910939E-013
 0.910939E-013
 0.910939E-013
 0.910939E-013
 0.910939E-013
 0.910939E-013
 0.910938E-013
 0.910938E-013
 0.910938E-013
 0.910938E-013
 0.910938E-013
 0.910938E-013
 0.910938E-013
 0.910938E-013
 0.910941E-013
 0.910908E-013
 0.911198E-013
 0.909269E-013
 0.918289E-013
 0.919266E-013
 0.909043E-013
 0.911233E-013
 0.910904E-013
 0.910942E-013
 0.910938E-013
 0.910938E-013
 0.910938E-013
 0.910938E-013
 0.910938E-013
 0.910938E-013
 0.910938E-013
 0.910938E-013
 0.910938E-013
 0.910939E-013
 0.910939E-013
 0.910939E-013
 0.910939E-013
 0.910939E-013
 0.910939E-013
 0.910939E-013
 0.910939E-013
 0.910939E-013
 0.910940E-013
 0.910940E-013
 0.910940E-013
 0.910940E-013
 0.910941E-013
 0.910941E-013
 0.910941E-013
 0.910942E-013
 0.910942E-013
 0.910943E-013
 0.910943E-013
 0.910943E-013
 0.910944E-013
 0.910945E-013
 0.910945E-013
 0.910946E-013
 0.910946E-013
 0.910947E-013
 0.910948E-013
 0.910948E-013
 0.910949E-013
 0.910950E-013
 0.910951E-013
 0.910951E-013
 0.910952E-013
 0.910953E-013
 0.910954E-013
 0.910954E-013
 0.910955E-013
 0.910956E-013
 0.910956E-013
 0.910957E-013
 0.910957E-013
 0.910958E-013
 0.910958E-013
 0.910959E-013
 0.910959E-013
 0.910959E-013
 0.910960E-013
 0.910960E-013
 0.910960E-013
 0.910960E-013
 0.910960E-013
 0.910960E-013
 0.910959E-013
 0.910959E-013
 0.910959E-013
 0.910958E-013
 0.910958E-013
 0.910957E-013
 0.910957E-013
 0.910956E-013
 0.910956E-013
 0.910955E-013
 0.910954E-013
 0.910954E-013
 0.910953E-013
 0.910952E-013
 0.910951E-013
 0.910951E-013
 0.910950E-013
 0.910949E-013
 0.910949E-013
 0.910948E-013
 0.910947E-013
 0.910946E-013
 0.910946E-013
 0.910945E-013
 0.910945E-013
 0.910944E-013
 0.910944E-013
 0.910943E-013
 0.910943E-013
 0.910942E-013
 0.910942E-013
 0.910941E-013
 0.910941E-013
 0.910941E-013
 0.910940E-013
 0.910940E-013
 0.910940E-013
 0.910940E-013
 0.910940E-013
 0.910939E-013
 0.910939E-013
 0.910939E-013
 0.910939E-013
 0.910939E-013
 0.910939E-013
 0.910939E-013
 0.910939E-013
 0.910939E-013
 0.910939E-013
 0.910938E-013
 0.910938E-013
 0.910938E-013
 0.910938E-013
 0.910938E-013
 0.910938E-013
 0.910938E-013
 0.910942E-013
 0.910904E-013
 0.911233E-013
 0.909044E-013
 0.919265E-013
 0.920240E-013
 0.908818E-013
 0.911269E-013
 0.910899E-013
 0.910942E-013
 0.910938E-013
 0.910938E-013
 0.910938E-013
 0.910938E-013
 0.910938E-013
 0.910938E-013
 0.910938E-013
 0.910938E-013
 0.910939E-013
 0.910939E-013
 0.910939E-013
 0.910939E-013
 0.910939E-013
 0.910939E-013
 0.910939E-013
 0.910939E-013
 0.910939E-013
 0.910940E-013
 0.910940E-013
 0.910940E-013
 0.910940E-013
 0.910941E-013
 0.910941E-013
 0.910942E-013
 0.910942E-013
 0.910942E-013
 0.910943E-013
 0.910943E-013
 0.910944E-013
 0.910945E-013
 0.910945E-013
 0.910946E-013
 0.910947E-013
 0.910947E-013
 0.910948E-013
 0.910949E-013
 0.910950E-013
 0.910950E-013
 0.910951E-013
 0.910952E-013
 0.910953E-013
 0.910954E-013
 0.910955E-013
 0.910956E-013
 0.910957E-013
 0.910957E-013
 0.910958E-013
 0.910959E-013
 0.910960E-013
 0.910960E-013
 0.910961E-013
 0.910962E-013
 0.910962E-013
 0.910963E-013
 0.910963E-013
 0.910963E-013
 0.910964E-013
 0.910964E-013
 0.910964E-013
 0.910964E-013
 0.910964E-013
 0.910964E-013
 0.910963E-013
 0.910963E-013
 0.910963E-013
 0.910962E-013
 0.910962E-013
 0.910961E-013
 0.910960E-013
 0.910960E-013
 0.910959E-013
 0.910958E-013
 0.910957E-013
 0.910957E-013
 0.910956E-013
 0.910955E-013
 0.910954E-013
 0.910953E-013
 0.910952E-013
 0.910951E-013
 0.910951E-013
 0.910950E-013
 0.910949E-013
 0.910948E-013
 0.910947E-013
 0.910947E-013
 0.910946E-013
 0.910945E-013
 0.910945E-013
 0.910944E-013
 0.910943E-013
 0.910943E-013
 0.910942E-013
 0.910942E-013
 0.910942E-013
 0.910941E-013
 0.910941E-013
 0.910941E-013
 0.910940E-013
 0.910940E-013
 0.910940E-013
 0.910940E-013
 0.910939E-013
 0.910939E-013
 0.910939E-013
 0.910939E-013
 0.910939E-013
 0.910939E-013
 0.910939E-013
 0.910939E-013
 0.910939E-013
 0.910939E-013
 0.910938E-013
 0.910938E-013
 0.910938E-013
 0.910938E-013
 0.910938E-013
 0.910938E-013
 0.910942E-013
 0.910899E-013
 0.911269E-013
 0.908819E-013
 0.920239E-013
 0.921213E-013
 0.908594E-013
 0.911304E-013
 0.910895E-013
 0.910942E-013
 0.910938E-013
 0.910938E-013
 0.910938E-013
 0.910938E-013
 0.910938E-013
 0.910938E-013
 0.910938E-013
 0.910939E-013
 0.910939E-013
 0.910939E-013
 0.910939E-013
 0.910939E-013
 0.910939E-013
 0.910939E-013
 0.910939E-013
 0.910940E-013
 0.910940E-013
 0.910940E-013
 0.910940E-013
 0.910941E-013
 0.910941E-013
 0.910941E-013
 0.910942E-013
 0.910942E-013
 0.910943E-013
 0.910943E-013
 0.910944E-013
 0.910944E-013
 0.910945E-013
 0.910946E-013
 0.910946E-013
 0.910947E-013
 0.910948E-013
 0.910949E-013
 0.910950E-013
 0.910951E-013
 0.910952E-013
 0.910953E-013
 0.910954E-013
 0.910955E-013
 0.910956E-013
 0.910957E-013
 0.910958E-013
 0.910959E-013
 0.910960E-013
 0.910961E-013
 0.910962E-013
 0.910963E-013
 0.910964E-013
 0.910964E-013
 0.910965E-013
 0.910966E-013
 0.910967E-013
 0.910967E-013
 0.910968E-013
 0.910968E-013
 0.910968E-013
 0.910968E-013
 0.910968E-013
 0.910968E-013
 0.910968E-013
 0.910968E-013
 0.910968E-013
 0.910968E-013
 0.910967E-013
 0.910967E-013
 0.910966E-013
 0.910965E-013
 0.910964E-013
 0.910964E-013
 0.910963E-013
 0.910962E-013
 0.910961E-013
 0.910960E-013
 0.910959E-013
 0.910958E-013
 0.910957E-013
 0.910956E-013
 0.910955E-013
 0.910954E-013
 0.910953E-013
 0.910952E-013
 0.910951E-013
 0.910950E-013
 0.910949E-013
 0.910948E-013
 0.910947E-013
 0.910947E-013
 0.910946E-013
 0.910945E-013
 0.910944E-013
 0.910944E-013
 0.910943E-013
 0.910943E-013
 0.910942E-013
 0.910942E-013
 0.910941E-013
 0.910941E-013
 0.910941E-013
 0.910940E-013
 0.910940E-013
 0.910940E-013
 0.910940E-013
 0.910939E-013
 0.910939E-013
 0.910939E-013
 0.910939E-013
 0.910939E-013
 0.910939E-013
 0.910939E-013
 0.910939E-013
 0.910939E-013
 0.910939E-013
 0.910938E-013
 0.910938E-013
 0.910938E-013
 0.910938E-013
 0.910938E-013
 0.910943E-013
 0.910895E-013
 0.911304E-013
 0.908594E-013
 0.921212E-013
 0.922183E-013
 0.908370E-013
 0.911339E-013
 0.910891E-013
 0.910943E-013
 0.910938E-013
 0.910938E-013
 0.910938E-013
 0.910938E-013
 0.910938E-013
 0.910938E-013
 0.910939E-013
 0.910939E-013
 0.910939E-013
 0.910939E-013
 0.910939E-013
 0.910939E-013
 0.910939E-013
 0.910939E-013
 0.910940E-013
 0.910940E-013
 0.910940E-013
 0.910940E-013
 0.910941E-013
 0.910941E-013
 0.910941E-013
 0.910942E-013
 0.910942E-013
 0.910943E-013
 0.910943E-013
 0.910944E-013
 0.910945E-013
 0.910946E-013
 0.910946E-013
 0.910947E-013
 0.910948E-013
 0.910949E-013
 0.910950E-013
 0.910951E-013
 0.910952E-013
 0.910953E-013
 0.910954E-013
 0.910955E-013
 0.910957E-013
 0.910958E-013
 0.910959E-013
 0.910960E-013
 0.910961E-013
 0.910963E-013