# vtk DataFile Version 3.0
Solution data
ASCII
DATASET STRUCTURED_GRID
DIMENSIONS 128 128 1
POINTS 16384  double
      0.000004      0.000004      0.000000
      0.000012      0.000004      0.000000
      0.000020      0.000004      0.000000
      0.000027      0.000004      0.000000
      0.000035      0.000004      0.000000
      0.000043      0.000004      0.000000
      0.000051      0.000004      0.000000
      0.000059      0.000004      0.000000
      0.000066      0.000004      0.000000
      0.000074      0.000004      0.000000
      0.000082      0.000004      0.000000
      0.000090      0.000004      0.000000
      0.000098      0.000004      0.000000
      0.000105      0.000004      0.000000
      0.000113      0.000004      0.000000
      0.000121      0.000004      0.000000
      0.000129      0.000004      0.000000
      0.000137      0.000004      0.000000
      0.000145      0.000004      0.000000
      0.000152      0.000004      0.000000
      0.000160      0.000004      0.000000
      0.000168      0.000004      0.000000
      0.000176      0.000004      0.000000
      0.000184      0.000004      0.000000
      0.000191      0.000004      0.000000
      0.000199      0.000004      0.000000
      0.000207      0.000004      0.000000
      0.000215      0.000004      0.000000
      0.000223      0.000004      0.000000
      0.000230      0.000004      0.000000
      0.000238      0.000004      0.000000
      0.000246      0.000004      0.000000
      0.000254      0.000004      0.000000
      0.000262      0.000004      0.000000
      0.000270      0.000004      0.000000
      0.000277      0.000004      0.000000
      0.000285      0.000004      0.000000
      0.000293      0.000004      0.000000
      0.000301      0.000004      0.000000
      0.000309      0.000004      0.000000
      0.000316      0.000004      0.000000
      0.000324      0.000004      0.000000
      0.000332      0.000004      0.000000
      0.000340      0.000004      0.000000
      0.000348      0.000004      0.000000
      0.000355      0.000004      0.000000
      0.000363      0.000004      0.000000
      0.000371      0.000004      0.000000
      0.000379      0.000004      0.000000
      0.000387      0.000004      0.000000
      0.000395      0.000004      0.000000
      0.000402      0.000004      0.000000
      0.000410      0.000004      0.000000
      0.000418      0.000004      0.000000
      0.000426      0.000004      0.000000
      0.000434      0.000004      0.000000
      0.000441      0.000004      0.000000
      0.000449      0.000004      0.000000
      0.000457      0.000004      0.000000
      0.000465      0.000004      0.000000
      0.000473      0.000004      0.000000
      0.000480      0.000004      0.000000
      0.000488      0.000004      0.000000
      0.000496      0.000004      0.000000
      0.000504      0.000004      0.000000
      0.000512      0.000004      0.000000
      0.000520      0.000004      0.000000
      0.000527      0.000004      0.000000
      0.000535      0.000004      0.000000
      0.000543      0.000004      0.000000
      0.000551      0.000004      0.000000
      0.000559      0.000004      0.000000
      0.000566      0.000004      0.000000
      0.000574      0.000004      0.000000
      0.000582      0.000004      0.000000
      0.000590      0.000004      0.000000
      0.000598      0.000004      0.000000
      0.000605      0.000004      0.000000
      0.000613      0.000004      0.000000
      0.000621      0.000004      0.000000
      0.000629      0.000004      0.000000
      0.000637      0.000004      0.000000
      0.000645      0.000004      0.000000
      0.000652      0.000004      0.000000
      0.000660      0.000004      0.000000
      0.000668      0.000004      0.000000
      0.000676      0.000004      0.000000
      0.000684      0.000004      0.000000
      0.000691      0.000004      0.000000
      0.000699      0.000004      0.000000
      0.000707      0.000004      0.000000
      0.000715      0.000004      0.000000
      0.000723      0.000004      0.000000
      0.000730      0.000004      0.000000
      0.000738      0.000004      0.000000
      0.000746      0.000004      0.000000
      0.000754      0.000004      0.000000
      0.000762      0.000004      0.000000
      0.000770      0.000004      0.000000
      0.000777      0.000004      0.000000
      0.000785      0.000004      0.000000
      0.000793      0.000004      0.000000
      0.000801      0.000004      0.000000
      0.000809      0.000004      0.000000
      0.000816      0.000004      0.000000
      0.000824      0.000004      0.000000
      0.000832      0.000004      0.000000
      0.000840      0.000004      0.000000
      0.000848      0.000004      0.000000
      0.000855      0.000004      0.000000
      0.000863      0.000004      0.000000
      0.000871      0.000004      0.000000
      0.000879      0.000004      0.000000
      0.000887      0.000004      0.000000
      0.000895      0.000004      0.000000
      0.000902      0.000004      0.000000
      0.000910      0.000004      0.000000
      0.000918      0.000004      0.000000
      0.000926      0.000004      0.000000
      0.000934      0.000004      0.000000
      0.000941      0.000004      0.000000
      0.000949      0.000004      0.000000
      0.000957      0.000004      0.000000
      0.000965      0.000004      0.000000
      0.000973      0.000004      0.000000
      0.000980      0.000004      0.000000
      0.000988      0.000004      0.000000
      0.000996      0.000004      0.000000
      0.000004      0.000012      0.000000
      0.000012      0.000012      0.000000
      0.000020      0.000012      0.000000
      0.000027      0.000012      0.000000
      0.000035      0.000012      0.000000
      0.000043      0.000012      0.000000
      0.000051      0.000012      0.000000
      0.000059      0.000012      0.000000
      0.000066      0.000012      0.000000
      0.000074      0.000012      0.000000
      0.000082      0.000012      0.000000
      0.000090      0.000012      0.000000
      0.000098      0.000012      0.000000
      0.000105      0.000012      0.000000
      0.000113      0.000012      0.000000
      0.000121      0.000012      0.000000
      0.000129      0.000012      0.000000
      0.000137      0.000012      0.000000
      0.000145      0.000012      0.000000
      0.000152      0.000012      0.000000
      0.000160      0.000012      0.000000
      0.000168      0.000012      0.000000
      0.000176      0.000012      0.000000
      0.000184      0.000012      0.000000
      0.000191      0.000012      0.000000
      0.000199      0.000012      0.000000
      0.000207      0.000012      0.000000
      0.000215      0.000012      0.000000
      0.000223      0.000012      0.000000
      0.000230      0.000012      0.000000
      0.000238      0.000012      0.000000
      0.000246      0.000012      0.000000
      0.000254      0.000012      0.000000
      0.000262      0.000012      0.000000
      0.000270      0.000012      0.000000
      0.000277      0.000012      0.000000
      0.000285      0.000012      0.000000
      0.000293      0.000012      0.000000
      0.000301      0.000012      0.000000
      0.000309      0.000012      0.000000
      0.000316      0.000012      0.000000
      0.000324      0.000012      0.000000
      0.000332      0.000012      0.000000
      0.000340      0.000012      0.000000
      0.000348      0.000012      0.000000
      0.000355      0.000012      0.000000
      0.000363      0.000012      0.000000
      0.000371      0.000012      0.000000
      0.000379      0.000012      0.000000
      0.000387      0.000012      0.000000
      0.000395      0.000012      0.000000
      0.000402      0.000012      0.000000
      0.000410      0.000012      0.000000
      0.000418      0.000012      0.000000
      0.000426      0.000012      0.000000
      0.000434      0.000012      0.000000
      0.000441      0.000012      0.000000
      0.000449      0.000012      0.000000
      0.000457      0.000012      0.000000
      0.000465      0.000012      0.000000
      0.000473      0.000012      0.000000
      0.000480      0.000012      0.000000
      0.000488      0.000012      0.000000
      0.000496      0.000012      0.000000
      0.000504      0.000012      0.000000
      0.000512      0.000012      0.000000
      0.000520      0.000012      0.000000
      0.000527      0.000012      0.000000
      0.000535      0.000012      0.000000
      0.000543      0.000012      0.000000
      0.000551      0.000012      0.000000
      0.000559      0.000012      0.000000
      0.000566      0.000012      0.000000
      0.000574      0.000012      0.000000
      0.000582      0.000012      0.000000
      0.000590      0.000012      0.000000
      0.000598      0.000012      0.000000
      0.000605      0.000012      0.000000
      0.000613      0.000012      0.000000
      0.000621      0.000012      0.000000
      0.000629      0.000012      0.000000
      0.000637      0.000012      0.000000
      0.000645      0.000012      0.000000
      0.000652      0.000012      0.000000
      0.000660      0.000012      0.000000
      0.000668      0.000012      0.000000
      0.000676      0.000012      0.000000
      0.000684      0.000012      0.000000
      0.000691      0.000012      0.000000
      0.000699      0.000012      0.000000
      0.000707      0.000012      0.000000
      0.000715      0.000012      0.000000
      0.000723      0.000012      0.000000
      0.000730      0.000012      0.000000
      0.000738      0.000012      0.000000
      0.000746      0.000012      0.000000
      0.000754      0.000012      0.000000
      0.000762      0.000012      0.000000
      0.000770      0.000012      0.000000
      0.000777      0.000012      0.000000
      0.000785      0.000012      0.000000
[...]
POINT_DATA 16384
SCALARS rhoe double
LOOKUP_TABLE default
 0.913908E-013
 0.913031E-013
 0.914345E-013
 0.915270E-013
 0.916244E-013
 0.917211E-013
 0.918178E-013
 0.919142E-013
 0.920105E-013
 0.921066E-013
 0.922024E-013
 0.922981E-013
 0.923935E-013
 0.924887E-013
 0.925837E-013
 0.926784E-013
 0.927727E-013
 0.928668E-013
 0.929604E-013
 0.930537E-013
 0.931466E-013
 0.932390E-013
 0.933309E-013
 0.934223E-013
 0.935130E-013
 0.936031E-013
 0.936925E-013
 0.937811E-013
 0.938688E-013
 0.939557E-013
 0.940415E-013
 0.941263E-013
 0.942100E-013
 0.942925E-013
 0.943737E-013
 0.944534E-013
 0.945317E-013
 0.946084E-013
 0.946834E-013
 0.947567E-013
 0.948281E-013
 0.948975E-013
 0.949648E-013
 0.950300E-013
 0.950929E-013
 0.951534E-013
 0.952114E-013
 0.952669E-013
 0.953196E-013
 0.953696E-013
 0.954167E-013
 0.954609E-013
 0.955020E-013
 0.955400E-013
 0.955748E-013
 0.956063E-013
 0.956345E-013
 0.956593E-013
 0.956806E-013
 0.956985E-013
 0.957128E-013
 0.957236E-013
 0.957308E-013
 0.957344E-013
 0.957344E-013
 0.957308E-013
 0.957236E-013
 0.957128E-013
 0.956985E-013
 0.956806E-013
 0.956592E-013
 0.956344E-013
 0.956062E-013
 0.955747E-013
 0.955399E-013
 0.955019E-013
 0.954608E-013
 0.954166E-013
 0.953695E-013
 0.953195E-013
 0.952667E-013
 0.952113E-013
 0.951532E-013
 0.950927E-013
 0.950299E-013
 0.949647E-013
 0.948973E-013
 0.948279E-013
 0.947565E-013
 0.946833E-013
 0.946082E-013
 0.945315E-013
 0.944532E-013
 0.943735E-013
 0.942923E-013
 0.942098E-013
 0.941261E-013
 0.940413E-013
 0.939555E-013
 0.938686E-013
 0.937809E-013
 0.936923E-013
 0.936029E-013
 0.935128E-013
 0.934221E-013
 0.933307E-013
 0.932388E-013
 0.931464E-013
 0.930536E-013
 0.929603E-013
 0.928666E-013
 0.927726E-013
 0.926782E-013
 0.925835E-013
 0.924886E-013
 0.923934E-013
 0.922980E-013
 0.922023E-013
 0.921064E-013
 0.920104E-013
 0.919141E-013
 0.918177E-013
 0.917211E-013
 0.916243E-013
 0.915269E-013
 0.914344E-013
 0.913031E-013
 0.913908E-013
 0.913031E-013
 0.909943E-013
 0.910296E-013
 0.910001E-013
 0.909795E-013
 0.909580E-013
 0.909367E-013
 0.909154E-013
 0.908941E-013
 0.908729E-013
 0.908518E-013
 0.908307E-013
 0.908097E-013
 0.907888E-013
 0.907679E-013
 0.907471E-013
 0.907264E-013
 0.907057E-013
 0.906852E-013
 0.906647E-013
 0.906444E-013
 0.906242E-013
 0.906041E-013
 0.905841E-013
 0.905643E-013
 0.905446E-013
 0.905251E-013
 0.905058E-013
 0.904867E-013
 0.904678E-013
 0.904491E-013
 0.904306E-013
 0.904124E-013
 0.903945E-013
 0.903769E-013
 0.903596E-013
 0.903426E-013
 0.903260E-013
 0.903098E-013
 0.902939E-013
 0.902785E-013
 0.902635E-013
 0.902489E-013
 0.902349E-013
 0.902213E-013
 0.902083E-013
 0.901958E-013
 0.901838E-013
 0.901725E-013
 0.901617E-013
 0.901516E-013
 0.901421E-013
 0.901332E-013
 0.901251E-013
 0.901176E-013
 0.901108E-013
 0.901048E-013
 0.900994E-013
 0.900949E-013
 0.900910E-013
 0.900879E-013
 0.900856E-013
 0.900841E-013
 0.900833E-013
 0.900833E-013
 0.900841E-013
 0.900856E-013
 0.900879E-013
 0.900910E-013
 0.900949E-013
 0.900994E-013
 0.901048E-013
 0.901108E-013
 0.901176E-013
 0.901251E-013
 0.901332E-013
 0.901421E-013
 0.901516E-013
 0.901617E-013
 0.901725E-013
 0.901838E-013
 0.901958E-013
 0.902083E-013
 0.902213E-013
 0.902349E-013
 0.902490E-013
 0.902635E-013
 0.902785E-013
 0.902940E-013
 0.903098E-013
 0.903261E-013
 0.903427E-013
 0.903597E-013
 0.903770E-013
 0.903946E-013
 0.904125E-013
 0.904307E-013
 0.904491E-013
 0.904678E-013
 0.904867E-013
 0.905058E-013
 0.905251E-013
 0.905446E-013
 0.905643E-013
 0.905841E-013
 0.906041E-013
 0.906242E-013
 0.906444E-013
 0.906648E-013
 0.906852E-013
 0.907058E-013
 0.907264E-013
 0.907471E-013
 0.907679E-013
 0.907888E-013
 0.908097E-013
 0.908307E-013
 0.908518E-013
 0.908730E-013
 0.908941E-013
 0.909154E-013
 0.909367E-013
 0.909580E-013
 0.909795E-013
 0.910001E-013
 0.910296E-013
 0.909943E-013
 0.913031E-013
 0.914345E-013
 0.910296E-013
 0.911148E-013
 0.911064E-013
 0.911109E-013
 0.911139E-013
 0.911172E-013
 0.911203E-013
 0.911235E-013
 0.911267E-013
 0.911299E-013
 0.911330E-013
 0.911362E-013
 0.911393E-013
 0.911424E-013
 0.911455E-013
 0.911486E-013
 0.911517E-013
 0.911548E-013
 0.911578E-013
 0.911609E-013
 0.911639E-013
 0.911669E-013
 0.911699E-013
 0.911729E-013
 0.911758E-013
 0.911787E-013
 0.911816E-013
 0.911845E-013
 0.911873E-013
 0.911901E-013
 0.911929E-013
 0.911956E-013
 0.911983E-013
 0.912009E-013
 0.912035E-013
 0.912061E-013
 0.912086E-013
 0.912110E-013
 0.912134E-013
 0.912157E-013
 0.912180E-013
 0.912202E-013
 0.912223E-013
 0.912244E-013
 0.912263E-013
 0.912282E-013
 0.912300E-013
 0.912318E-013
 0.912334E-013
 0.912349E-013
 0.912364E-013
 0.912377E-013
 0.912390E-013
 0.912401E-013
 0.912411E-013
 0.912420E-013
 0.912428E-013
 0.912435E-013
 0.912441E-013
 0.912446E-013
 0.912450E-013
 0.912452E-013
 0.912453E-013
 0.912453E-013
 0.912452E-013
 0.912450E-013
 0.912446E-013
 0.912441E-013
 0.912435E-013
 0.912428E-013
 0.912420E-013
 0.912411E-013
 0.912401E-013
 0.912390E-013
 0.912377E-013
 0.912364E-013
 0.912349E-013
 0.912334E-013
 0.912318E-013
 0.912300E-013
 0.912282E-013
 0.912263E-013
 0.912244E-013
 0.912223E-013
 0.912202E-013
 0.912180E-013
 0.912157E-013
 0.912134E-013
 0.912110E-013
 0.912086E-013
 0.912061E-013
 0.912035E-013
 0.912009E-013
 0.911983E-013
 0.911956E-013
 0.911929E-013
 0.911901E-013
 0.911873E-013
 0.911845E-013
 0.911816E-013
 0.911787E-013
 0.911758E-013
 0.911729E-013
 0.911699E-013
 0.911669E-013
 0.911639E-013
 0.911609E-013
 0.911578E-013
 0.911548E-013
 0.911517E-013
 0.911486E-013
 0.911455E-013
 0.911424E-013
 0.911393E-013
 0.911362E-013
 0.911330E-013
 0.911299E-013
 0.911267E-013
 0.911235E-013
 0.911203E-013
 0.911172E-013
 0.911139E-013
 0.911109E-013
 0.911064E-013
 0.911148E-013
 0.910297E-013
 0.914344E-013
 0.915270E-013
 0.910001E-013
 0.911064E-013
 0.910908E-013
 0.910921E-013
 0.910916E-013
 0.910912E-013
 0.910909E-013
 0.910905E-013
 0.910901E-013
 0.910898E-013
 0.910894E-013
 0.910891E-013
 0.910887E-013
 0.910884E-013
 0.910880E-013
 0.910877E-013
 0.910873E-013
 0.910870E-013
 0.910867E-013
 0.910863E-013
 0.910860E-013
 0.910857E-013
 0.910853E-013
 0.910850E-013
 0.910847E-013
 0.910844E-013
 0.910841E-013
 0.910838E-013
 0.910835E-013
 0.910832E-013
 0.910829E-013
 0.910826E-013
 0.910823E-013
 0.910821E-013
 0.910818E-013
 0.910816E-013
 0.910813E-013
 0.910811E-013
 0.910808E-013
 0.910806E-013
 0.910804E-013
 0.910802E-013
 0.910800E-013
 0.910798E-013
 0.910796E-013
 0.910795E-013
 0.910793E-013
 0.910791E-013
 0.910790E-013
 0.910789E-013
 0.910788E-013
 0.910786E-013
 0.910785E-013
 0.910784E-013
 0.910784E-013
 0.910783E-013
 0.910782E-013
 0.910782E-013
 0.910781E-013
 0.910781E-013
 0.910781E-013
 0.910780E-013
 0.910780E-013
 0.910780E-013
 0.910780E-013
 0.910781E-013
 0.910781E-013
 0.910781E-013
 0.910782E-013
 0.910782E-013
 0.910783E-013
 0.910784E-013
 0.910784E-013
 0.910785E-013
 0.910786E-013
 0.910788E-013
 0.910789E-013
 0.910790E-013
 0.910791E-013
 0.910793E-013
 0.910795E-013
 0.910796E-013
 0.910798E-013
 0.910800E-013
 0.910802E-013
 0.910804E-013
 0.910806E-013
 0.910808E-013
 0.910811E-013
 0.910813E-013
 0.910816E-013
 0.910818E-013
 0.910821E-013
 0.910823E-013
 0.910826E-013
 0.910829E-013
 0.910832E-013
 0.910835E-013
 0.910838E-013
 0.910841E-013
 0.910844E-013
 0.910847E-013
 0.910850E-013
 0.910853E-013
 0.910857E-013
 0.910860E-013
 0.910863E-013
 0.910867E-013
 0.910870E-013
 0.910873E-013
 0.910877E-013
 0.910880E-013
 0.910884E-013
 0.910887E-013
 0.910891E-013
 0.910894E-013
 0.910898E-013
 0.910901E-013
 0.910905E-013
 0.910909E-013
 0.910912E-013
 0.910916E-013
 0.910921E-013
 0.910908E-013
 0.911064E-013
 0.910001E-013
 0.915269E-013
 0.916244E-013
 0.909795E-013
 0.911109E-013
 0.910921E-013
 0.910942E-013
 0.910940E-013
 0.910941E-013
 0.910941E-013
 0.910941E-013
 0.910942E-013
 0.910942E-013
 0.910942E-013
 0.910943E-013
 0.910943E-013
 0.910943E-013
 0.910944E-013
 0.910944E-013
 0.910944E-013
 0.910945E-013
 0.910945E-013
 0.910946E-013
 0.910946E-013
 0.910946E-013
 0.910947E-013
 0.910947E-013
 0.910948E-013
 0.910948E-013
 0.910949E-013
 0.910949E-013
 0.910950E-013
 0.910950E-013
 0.910951E-013
 0.910951E-013
 0.910952E-013
 0.910952E-013
 0.910953E-013
 0.910954E-013
 0.910954E-013
 0.910955E-013
 0.910956E-013
 0.910956E-013
 0.910957E-013
 0.910958E-013
 0.910958E-013
 0.910959E-013
 0.910960E-013
 0.910960E-013
 0.910961E-013
 0.910962E-013
 0.910962E-013
 0.910963E-013
 0.910963E-013
 0.910964E-013
 0.910964E-013
 0.910965E-013
 0.910965E-013
 0.910966E-013
 0.910966E-013
 0.910967E-013
 0.910967E-013
 0.910967E-013
 0.910967E-013
 0.910967E-013
 0.910967E-013
 0.910967E-013
 0.910967E-013
 0.910967E-013
 0.910967E-013
 0.910967E-013
 0.910967E-013
 0.910966E-013
 0.910966E-013
 0.910965E-013
 0.910965E-013
 0.910964E-013
 0.910964E-013
 0.910963E-013
 0.910963E-013
 0.910962E-013
 0.910962E-013
 0.910961E-013
 0.910960E-013
 0.910960E-013
 0.910959E-013
 0.910958E-013
 0.910958E-013
 0.910957E-013
 0.910956E-013
 0.910956E-013
 0.910955E-013
 0.910954E-013
 0.910954E-013
 0.910953E-013
 0.910953E-013
 0.910952E-013
 0.910951E-013
 0.910951E-013
 0.910950E-013
 0.910950E-013
 0.910949E-013
 0.910949E-013
 0.910948E-013
 0.910948E-013
 0.910947E-013
 0.910947E-013
 0.910946E-013
 0.910946E-013
 0.910946E-013
 0.910945E-013
 0.910945E-013
 0.910945E-013
 0.910944E-013
 0.910944E-013
 0.910943E-013
 0.910943E-013
 0.910943E-013
 0.910942E-013
 0.910942E-013
 0.910942E-013
 0.910941E-013
 0.910941E-013
 0.910941E-013
 0.910940E-013
 0.910942E-013
 0.910921E-013
 0.911109E-013
 0.909795E-013
 0.916243E-013
 0.917211E-013
 0.909580E-013
 0.911139E-013
 0.910916E-013
 0.910940E-013
 0.910938E-013
 0.910938E-013
 0.910938E-013
 0.910938E-013
 0.910938E-013
 0.910938E-013
 0.910938E-013
 0.910938E-013
 0.910938E-013
 0.910938E-013
 0.910938E-013
 0.910938E-013
 0.910938E-013
 0.910938E-013
 0.910938E-013
 0.910938E-013
 0.910938E-013
 0.910939E-013
 0.910939E-013
 0.910939E-013
 0.910939E-013
 0.910939E-013
 0.910939E-013
 0.910940E-013
 0.910940E-013
 0.910940E-013
 0.910940E-013
 0.910941E-013
 0.910941E-013
 0.910941E-013
 0.910942E-013
 0.910942E-013
 0.910943E-013
 0.910943E-013
 0.910944E-013
 0.910944E-013
 0.910945E-013
 0.910945E-013
 0.910946E-013
 0.910946E-013
 0.910947E-013
 0.910947E-013
 0.910948E-013
 0.910948E-013
 0.910949E-013
 0.910949E-013
 0.910950E-013
 0.910950E-013
 0.910951E-013
 0.910951E-013
 0.910952E-013
 0.910952E-013
 0.910952E-013
 0.910953E-013
 0.910953E-013
 0.910953E-013
 0.910953E-013
 0.910953E-013
 0.910953E-013
 0.910953E-013
 0.910953E-013
 0.910953E-013
 0.910953E-013
 0.910953E-013
 0.910953E-013
 0.910952E-013
 0.910952E-013
 0.910952E-013
 0.910951E-013
 0.910951E-013
 0.910950E-013
 0.910950E-013
 0.910949E-013
 0.910949E-013
 0.910948E-013
 0.910948E-013
 0.910947E-013
 0.910947E-013
 0.910946E-013
 0.910946E-013
 0.910945E-013
 0.910945E-013
 0.910944E-013
 0.910944E-013
 0.910943E-013
 0.910943E-013
 0.910942E-013
 0.910942E-013
 0.910941E-013
 0.910941E-013
 0.910941E-013
 0.910940E-013
 0.910940E-013
 0.910940E-013
 0.910940E-013
 0.910939E-013
 0.910939E-013
 0.910939E-013
 0.910939E-013
 0.910939E-013
 0.910939E-013
 0.910939E-013
 0.910938E-013
 0.910938E-013
 0.910938E-013
 0.910938E-013
 0.910938E-013
 0.910938E-013
 0.910938E-013
 0.910938E-013
 0.910938E-013
 0.910938E-013
 0.910938E-013
 0.910938E-013
 0.910938E-013
 0.910938E-013
 0.910938E-013
 0.910938E-013
 0.910940E-013
 0.910916E-013
 0.911140E-013
 0.909580E-013
 0.917211E-013
 0.918178E-013
 0.909367E-013
 0.911172E-013
 0.910912E-013
 0.910941E-013
 0.910938E-013
 0.910938E-013
 0.910938E-013
 0.910938E-013
 0.910938E-013
 0.910938E-013
 0.910938E-013
 0.910938E-013
 0.910938E-013
 0.910939E-013
 0.910939E-013
 0.910939E-013
 0.910939E-013
 0.910939E-013
 0.910939E-013
 0.910939E-013
 0.910939E-013
 0.910939E-013
 0.910940E-013
 0.910940E-013
 0.910940E-013
 0.910940E-013
 0.910940E-013
 0.910941E-013
 0.910941E-013
 0.910941E-013
 0.910942E-013
 0.910942E-013
 0.910943E-013
 0.910943E-013
 0.910944E-013
 0.910944E-013
 0.910945E-013
 0.910945E-013
 0.910946E-013
 0.910946E-013
 0.910947E-013
 0.910948E-013
 0.910948E-013
 0.910949E-013
 0.910950E-013
 0.910950E-013
 0.910951E-013
 0.910952E-013
 0.910952E-013
 0.910953E-013
 0.910954E-013
 0.910954E-013
 0.910955E-013
 0.910955E-013
 0.910956E-013
 0.910956E-013
 0.910957E-013
 0.910957E-013
 0.910957E-013
 0.910958E-013
 0.910958E-013
 0.910958E-013
 0.910958E-013
 0.910958E-013
 0.910958E-013
 0.910958E-013
 0.910958E-013
 0.910957E-013
 0.910957E-013
 0.910957E-013
 0.910956E-013
 0.910956E-013
 0.910955E-013
 0.910955E-013
 0.910954E-013
 0.910954E-013
 0.910953E-013
 0.910952E-013
 0.910952E-013
 0.910951E-013
 0.910950E-013
 0.910950E-013
 0.910949E-013
 0.910948E-013
 0.910948E-013
 0.910947E-013
 0.910946E-013
 0.910946E-013
 0.910945E-013
 0.910945E-013
 0.910944E-013
 0.910944E-013
 0.910943E-013
 0.910943E-013
 0.910942E-013
 0.910942E-013
 0.910942E-013
 0.910941E-013
 0.910941E-013
 0.910941E-013
 0.910940E-013
 0.910940E-013
 0.910940E-013
 0.910940E-013
 0.910939E-013
 0.910939E-013
 0.910939E-013
 0.910939E-013
 0.910939E-013
 0.910939E-013
 0.910939E-013
 0.910939E-013
 0.910939E-013
 0.910939E-013
 0.910939E-013
 0.910938E-013
 0.910938E-013
 0.910938E-013
 0.910938E-013
 0.910938E-013
 0.910938E-013
 0.910938E-013
 0.910941E-013
 0.910912E-013
 0.911172E-013
 0.909367E-013
 0.918177E-013
 0.919142E-013
 0.909154E-013
 0.911203E-013
 0.910909E-013
 0.910941E-013
 0.910938E-013
 0.910938E-013
 0.910938E-013
 0.910938E-013
 0.910938E-013
 0.910938E-013
 0.910938E-013
 0.910938E-013
 0.910939E-013
 0.910939E-013
 0.910939E-013
 0.910939E-013
 0.910939E-013
 0.910939E-013
 0.910939E-013
 0.910939E-013
 0.910939E-013
 0.910940E-013
 0.910940E-013
 0.910940E-013
 0.910940E-013
 0.910941E-013
 0.910941E-013
 0.910941E-013
 0.910942E-013
 0.910942E-013
 0.910942E-013
 0.910943E-013
 0.910943E-013
 0.910944E-013
 0.910945E-013
 0.910945E-013
 0.910946E-013
 0.910947E-013
 0.910947E-013
 0.910948E-013
 0.910949E-013
 0.910949E-013
 0.910950E-013
 0.910951E-013
 0.910952E-013
 0.910953E-013
 0.910953E-013
 0.910954E-013
 0.910955E-013
 0.910956E-013
 0.910957E-013
 0.910957E-013
 0.910958E-013
 0.910959E-013
 0.910959E-013
 0.910960E-013
 0.910960E-013
 0.910961E-013
 0.910961E-013
 0.910961E-013
 0.910961E-013
 0.910962E-013
 0.910962E-013
 0.910962E-013
 0.910962E-013
 0.910961E-013
 0.910961E-013
 0.910961E-013
 0.910961E-013
 0.910960E-013
 0.910960E-013
 0.910959E-013
 0.910959E-013
 0.910958E-013
 0.910957E-013
 0.910957E-013
 0.910956E-013
 0.910955E-013
 0.910954E-013
 0.910953E-013
 0.910953E-013
 0.910952E-013
 0.910951E-013
 0.910950E-013
 0.910949E-013
 0.910949E-013
 0.910948E-013
 0.910947E-013
 0.910947E-013
 0.910946E-013
 0.910945E-013
 0.910945E-013
 0.910944E-013
 0.910944E-013
 0.910943E-013
 0.910943E-013
 0.910942E-013
 0.910942E-013
 0.910941E-013
 0.910941E-013
 0.910941E-013
 0.910940E-013
 0.910940E-013
 0.910940E-013
 0.910940E-013
 0.910939E-013
 0.910939E-013
 0.910939E-013
 0.910939E-013
 0.910939E-013
 0.910939E-013
 0.910939E-013
 0.910939E-013
 0.910939E-013
 0.910939E-013
 0.910938E-013
 0.910938E-013
 0.910938E-013
 0.910938E-013
 0.910938E-013
 0.910938E-013
 0.910938E-013
 0.910941E-013
 0.910909E-013
 0.911204E-013
 0.909154E-013
 0.919141E-013
 0.920105E-013
 0.908941E-013
 0.911235E-013
 0.910905E-013
 0.910941E-013
 0.910938E-013
 0.910938E-013
 0.910938E-013
 0.910938E-013
 0.910938E-013
 0.910938E-013
 0.910938E-013
 0.910939E-013
 0.910939E-013
 0.910939E-013
 0.910939E-013
 0.910939E-013
 0.910939E-013
 0.910939E-013
 0.910939E-013
 0.910939E-013
 0.910940E-013
 0.910940E-013
 0.910940E-013
 0.910940E-013
 0.910941E-013
 0.910941E-013
 0.910941E-013
 0.910942E-013
 0.910942E-013
 0.910943E-013
 0.910943E-013
 0.910944E-013
 0.910944E-013
 0.910945E-013
 0.910946E-013
 0.910947E-013
 0.910947E-013
 0.910948E-013
 0.910949E-013
 0.910950E-013
 0.910951E-013
 0.910952E-013
 0.910953E-013
 0.910953E-013
 0.910954E-013
 0.910955E-013
 0.910956E-013
 0.910957E-013
 0.910958E-013
 0.910959E-013
 0.910960E-013
 0.910961E-013
 0.910962E-013
 0.910962E-013
 0.910963E-013
 0.910964E-013
 0.910964E-013
 0.910965E-013
 0.910965E-013
 0.910966E-013
 0.910966E-013
 0.910966E-013
 0.910966E-013
 0.910966E-013
 0.910966E-013
 0.910966E-013
 0.910966E-013
 0.910965E-013
 0.910965E-013
 0.910964E-013
 0.910964E-013
 0.910963E-013
 0.910962E-013
 0.910962E-013
 0.910961E-013
 0.910960E-013
 0.910959E-013
 0.910958E-013
 0.910957E-013
 0.910956E-013
 0.910955E-013
 0.910954E-013
 0.910954E-013
 0.910953E-013
 0.910952E-013
 0.910951E-013
 0.910950E-013
 0.910949E-013
 0.910948E-013
 0.910947E-013
 0.910947E-013
 0.910946E-013
 0.910945E-013
 0.910945E-013
 0.910944E-013
 0.910943E-013
 0.910943E-013
 0.910942E-013
 0.910942E-013
 0.910941E-013
 0.910941E-013
 0.910941E-013
 0.910940E-013
 0.910940E-013
 0.910940E-013
 0.910940E-013
 0.910939E-013
 0.910939E-013
 0.910939E-013
 0.910939E-013
 0.910939E-013
 0.910939E-013
 0.910939E-013
 0.910939E-013
 0.910939E-013
 0.910939E-013
 0.910939E-013
 0.910938E-013
 0.910938E-013
 0.910938E-013
 0.910938E-013
 0.910938E-013
 0.910941E-013
 0.910905E-013
 0.911235E-013
 0.908942E-013
 0.920104E-013
 0.921066E-013
 0.908729E-013
 0.911267E-013
 0.910901E-013
 0.910942E-013
 0.910938E-013
 0.910938E-013
 0.910938E-013
 0.910938E-013
 0.910938E-013
 0.910938E-013
 0.910939E-013
 0.910939E-013
 0.910939E-013
 0.910939E-013
 0.910939E-013
 0.910939E-013
 0.910939E-013
 0.910939E-013
 0.910939E-013
 0.910940E-013
 0.910940E-013
 0.910940E-013
 0.910940E-013
 0.910941E-013
 0.910941E-013
 0.910942E-013
 0.910942E-013
 0.910943E-013
 0.910943E-013
 0.910944E-013
 0.910944E-013
 0.910945E-013
 0.910946E-013
 0.910946E-013
 0.910947E-013
 0.910948E-013
 0.910949E-013
 0.910950E-013
 0.910951E-013
 0.910952E-013
 0.910953E-013
 0.910954E-013
 0.910955E-013
 0.910956E-013
 0.910957E-013
 0.910959E-013
 0.910960E-013
 0.910961E-013
 0.910962E-013
 0.910963E-013
 0.910964E-013
 0.910965E-013
 0.910966E-013
 0.910967E-013
 0.910968E-013
 0.910968E-013
 0.910969E-013
 0.910970E-013
 0.910970E-013
 0.910971E-013
 0.910971E-013
 0.910971E-013
 0.910971E-013
 0.910971E-013
 0.910971E-013
 0.910971E-013
 0.910971E-013
 0.910970E-013
 0.910970E-013
 0.910969E-013
 0.910968E-013
 0.910968E-013
 0.910967E-013
 0.910966E-013
 0.910965E-013
 0.910964E-013
 0.910963E-013
 0.910962E-013
 0.910961E-013
 0.910960E-013
 0.910959E-013
 0.910957E-013
 0.910956E-013
 0.910955E-013
 0.910954E-013
 0.910953E-013
 0.910952E-013
 0.910951E-013
 0.910950E-013
 0.910949E-013
 0.910948E-013
 0.910947E-013
 0.910946E-013
 0.910946E-013
 0.910945E-013
 0.910944E-013
 0.910944E-013
 0.910943E-013
 0.910943E-013
 0.910942E-013
 0.910942E-013
 0.910941E-013
 0.910941E-013
 0.910941E-013
 0.910940E-013
 0.910940E-013
 0.910940E-013
 0.910940E-013
 0.910939E-013
 0.910939E-013
 0.910939E-013
 0.910939E-013
 0.910939E-013
 0.910939E-013
 0.910939E-013
 0.910939E-013
 0.910939E-013
 0.910939E-013
 0.910938E-013
 0.910938E-013
 0.910938E-013
 0.910938E-013
 0.910942E-013
 0.910901E-013
 0.911267E-013
 0.908730E-013
 0.921064E-013
 0.922024E-013
 0.908518E-013
 0.911299E-013
 0.910898E-013
 0.910942E-013
 0.910938E-013
 0.910938E-013
 0.910938E-013
 0.910938E-013
 0.910938E-013
 0.910939E-013
 0.910939E-013
 0.910939E-013
 0.910939E-013
 0.910939E-013
 0.910939E-013
 0.910939E-013
 0.910939E-013
 0.910939E-013
 0.910940E-013
 0.910940E-013
 0.910940E-013
 0.910941E-013
 0.910941E-013
 0.910941E-013
 0.910942E-013
 0.910942E-013
 0.910943E-013
 0.910943E-013
 0.910944E-013
 0.910945E-013
 0.910945E-013
 0.910946E-013
 0.910947E-013
 0.910948E-013
 0.910949E-013
 0.910950E-013
 0.910951E-013
 0.910952E-013
 0.910953E-013
 0.910954E-013
 0.910956E-013
 0.910957E-013
 0.910958E-013
 0.910960E-013
 0.910961E-013
 0.910962E-013
 0.910964E-013
 0.910965E-013