# vtk DataFile Version 3.0
Solution data
ASCII
DATASET STRUCTURED_GRID
DIMENSIONS 128 128 1
POINTS 16384  double
      0.000004      0.000004      0.000000
      0.000012      0.000004      0.000000
      0.000020      0.000004      0.000000
      0.000027      0.000004      0.000000
      0.000035      0.000004      0.000000
      0.000043      0.000004      0.000000
      0.000051      0.000004      0.000000
      0.000059      0.000004      0.000000
      0.000066      0.000004      0.000000
      0.000074      0.000004      0.000000
      0.000082      0.000004      0.000000
      0.000090      0.000004      0.000000
      0.000098      0.000004      0.000000
      0.000105      0.000004      0.000000
      0.000113      0.000004      0.000000
      0.000121      0.000004      0.000000
      0.000129      0.000004      0.000000
      0.000137      0.000004      0.000000
      0.000145      0.000004      0.000000
      0.000152      0.000004      0.000000
      0.000160      0.000004      0.000000
      0.000168      0.000004      0.000000
      0.000176      0.000004      0.000000
      0.000184      0.000004      0.000000
      0.000191      0.000004      0.000000
      0.000199      0.000004      0.000000
      0.000207      0.000004      0.000000
      0.000215      0.000004      0.000000
      0.000223      0.000004      0.000000
      0.000230      0.000004      0.000000
      0.000238      0.000004      0.000000
      0.000246      0.000004      0.000000
      0.000254      0.000004      0.000000
      0.000262      0.000004      0.000000
      0.000270      0.000004      0.000000
      0.000277      0.000004      0.000000
      0.000285      0.000004      0.000000
      0.000293      0.000004      0.000000
      0.000301      0.000004      0.000000
      0.000309      0.000004      0.000000
      0.000316      0.000004      0.000000
      0.000324      0.000004      0.000000
      0.000332      0.000004      0.000000
      0.000340      0.000004      0.000000
      0.000348      0.000004      0.000000
      0.000355      0.000004      0.000000
      0.000363      0.000004      0.000000
      0.000371      0.000004      0.000000
      0.000379      0.000004      0.000000
      0.000387      0.000004      0.000000
      0.000395      0.000004      0.000000
      0.000402      0.000004      0.000000
      0.000410      0.000004      0.000000
      0.000418      0.000004      0.000000
      0.000426      0.000004      0.000000
      0.000434      0.000004      0.000000
      0.000441      0.000004      0.000000
      0.000449      0.000004      0.000000
      0.000457      0.000004      0.000000
      0.000465      0.000004      0.000000
      0.000473      0.000004      0.000000
      0.000480      0.000004      0.000000
      0.000488      0.000004      0.000000
      0.000496      0.000004      0.000000
      0.000504      0.000004      0.000000
      0.000512      0.000004      0.000000
      0.000520      0.000004      0.000000
      0.000527      0.000004      0.000000
      0.000535      0.000004      0.000000
      0.000543      0.000004      0.000000
      0.000551      0.000004      0.000000
      0.000559      0.000004      0.000000
      0.000566      0.000004      0.000000
      0.000574      0.000004      0.000000
      0.000582      0.000004      0.000000
      0.000590      0.000004      0.000000
      0.000598      0.000004      0.000000
      0.000605      0.000004      0.000000
      0.000613      0.000004      0.000000
      0.000621      0.000004      0.000000
      0.000629      0.000004      0.000000
      0.000637      0.000004      0.000000
      0.000645      0.000004      0.000000
      0.000652      0.000004      0.000000
      0.000660      0.000004      0.000000
      0.000668      0.000004      0.000000
      0.000676      0.000004      0.000000
      0.000684      0.000004      0.000000
      0.000691      0.000004      0.000000
      0.000699      0.000004      0.000000
      0.000707      0.000004      0.000000
      0.000715      0.000004      0.000000
      0.000723      0.000004      0.000000
      0.000730      0.000004      0.000000
      0.000738      0.000004      0.000000
      0.000746      0.000004      0.000000
      0.000754      0.000004      0.000000
      0.000762      0.000004      0.000000
      0.000770      0.000004      0.000000
      0.000777      0.000004      0.000000
      0.000785      0.000004      0.000000
      0.000793      0.000004      0.000000
      0.000801      0.000004      0.000000
      0.000809      0.000004      0.000000
      0.000816      0.000004      0.000000
      0.000824      0.000004      0.000000
      0.000832      0.000004      0.000000
      0.000840      0.000004      0.000000
      0.000848      0.000004      0.000000
      0.000855      0.000004      0.000000
      0.000863      0.000004      0.000000
      0.000871      0.000004      0.000000
      0.000879      0.000004      0.000000
      0.000887      0.000004      0.000000
      0.000895      0.000004      0.000000
      0.000902      0.000004      0.000000
      0.000910      0.000004      0.000000
      0.000918      0.000004      0.000000
      0.000926      0.000004      0.000000
      0.000934      0.000004      0.000000
      0.000941      0.000004      0.000000
      0.000949      0.000004      0.000000
      0.000957      0.000004      0.000000
      0.000965      0.000004      0.000000
      0.000973      0.000004      0.000000
      0.000980      0.000004      0.000000
      0.000988      0.000004      0.000000
      0.000996      0.000004      0.000000
      0.000004      0.000012      0.000000
      0.000012      0.000012      0.000000
      0.000020      0.000012      0.000000
      0.000027      0.000012      0.000000
      0.000035      0.000012      0.000000
      0.000043      0.000012      0.000000
      0.000051      0.000012      0.000000
      0.000059      0.000012      0.000000
      0.000066      0.000012      0.000000
      0.000074      0.000012      0.000000
      0.000082      0.000012      0.000000
      0.000090      0.000012      0.000000
      0.000098      0.000012      0.000000
      0.000105      0.000012      0.000000
      0.000113      0.000012      0.000000
      0.000121      0.000012      0.000000
      0.000129      0.000012      0.000000
      0.000137      0.000012      0.000000
      0.000145      0.000012      0.000000
      0.000152      0.000012      0.000000
      0.000160      0.000012      0.000000
      0.000168      0.000012      0.000000
      0.000176      0.000012      0.000000
      0.000184      0.000012      0.000000
      0.000191      0.000012      0.000000
      0.000199      0.000012      0.000000
      0.000207      0.000012      0.000000
      0.000215      0.000012      0.000000
      0.000223      0.000012      0.000000
      0.000230      0.000012      0.000000
      0.000238      0.000012      0.000000
      0.000246      0.000012      0.000000
      0.000254      0.000012      0.000000
      0.000262      0.000012      0.000000
      0.000270      0.000012      0.000000
      0.000277      0.000012      0.000000
      0.000285      0.000012      0.000000
      0.000293      0.000012      0.000000
      0.000301      0.000012      0.000000
      0.000309      0.000012      0.000000
      0.000316      0.000012      0.000000
      0.000324      0.000012      0.000000
      0.000332      0.000012      0.000000
      0.000340      0.000012      0.000000
      0.000348      0.000012      0.000000
      0.000355      0.000012      0.000000
      0.000363      0.000012      0.000000
      0.000371      0.000012      0.000000
      0.000379      0.000012      0.000000
      0.000387      0.000012      0.000000
      0.000395      0.000012      0.000000
      0.000402      0.000012      0.000000
      0.000410      0.000012      0.000000
      0.000418      0.000012      0.000000
      0.000426      0.000012      0.000000
      0.000434      0.000012      0.000000
      0.000441      0.000012      0.000000
      0.000449      0.000012      0.000000
      0.000457      0.000012      0.000000
      0.000465      0.000012      0.000000
      0.000473      0.000012      0.000000
      0.000480      0.000012      0.000000
      0.000488      0.000012      0.000000
      0.000496      0.000012      0.000000
      0.000504      0.000012      0.000000
      0.000512      0.000012      0.000000
      0.000520      0.000012      0.000000
      0.000527      0.000012      0.000000
      0.000535      0.000012      0.000000
      0.000543      0.000012      0.000000
      0.000551      0.000012      0.000000
      0.000559      0.000012      0.000000
      0.000566      0.000012      0.000000
      0.000574      0.000012      0.000000
      0.000582      0.000012      0.000000
      0.000590      0.000012      0.000000
      0.000598      0.000012      0.000000
      0.000605      0.000012      0.000000
      0.000613      0.000012      0.000000
      0.000621      0.000012      0.000000
      0.000629      0.000012      0.000000
      0.000637      0.000012      0.000000
      0.000645      0.000012      0.000000
      0.000652      0.000012      0.000000
      0.000660      0.000012      0.000000
      0.000668      0.000012      0.000000
      0.000676      0.000012      0.000000
      0.000684      0.000012      0.000000
      0.000691      0.000012      0.000000
      0.000699      0.000012      0.000000
      0.000707      0.000012      0.000000
      0.000715      0.000012      0.000000
      0.000723      0.000012      0.000000
      0.000730      0.000012      0.000000
      0.000738      0.000012      0.000000
      0.000746      0.000012      0.000000
      0.000754      0.000012      0.000000
      0.000762      0.000012      0.000000
      0.000770      0.000012      0.000000
      0.000777      0.000012      0.000000
      0.000785      0.000012      0.000000
[...]
POINT_DATA 16384
SCALARS rhoe double
LOOKUP_TABLE default
 0.916779E-013
 0.912015E-013
 0.915557E-013
 0.915148E-013
 0.916375E-013
 0.917004E-013
 0.917823E-013
 0.918585E-013
 0.919359E-013
 0.920127E-013
 0.920893E-013
 0.921657E-013
 0.922418E-013
 0.923176E-013
 0.923931E-013
 0.924683E-013
 0.925431E-013
 0.926176E-013
 0.926917E-013
 0.927653E-013
 0.928385E-013
 0.929112E-013
 0.929834E-013
 0.930550E-013
 0.931261E-013
 0.931965E-013
 0.932662E-013
 0.933353E-013
 0.934035E-013
 0.934709E-013
 0.935375E-013
 0.936031E-013
 0.936678E-013
 0.937314E-013
 0.937939E-013
 0.938552E-013
 0.939153E-013
 0.939740E-013
 0.940314E-013
 0.940874E-013
 0.941418E-013
 0.941947E-013
 0.942459E-013
 0.942954E-013
 0.943431E-013
 0.943889E-013
 0.944328E-013
 0.944747E-013
 0.945145E-013
 0.945521E-013
 0.945876E-013
 0.946208E-013
 0.946517E-013
 0.946803E-013
 0.947064E-013
 0.947300E-013
 0.947511E-013
 0.947697E-013
 0.947857E-013
 0.947990E-013
 0.948098E-013
 0.948178E-013
 0.948232E-013
 0.948259E-013
 0.948259E-013
 0.948232E-013
 0.948178E-013
 0.948098E-013
 0.947990E-013
 0.947857E-013
 0.947697E-013
 0.947511E-013
 0.947300E-013
 0.947064E-013
 0.946803E-013
 0.946517E-013
 0.946208E-013
 0.945876E-013
 0.945522E-013
 0.945145E-013
 0.944747E-013
 0.944328E-013
 0.943889E-013
 0.943431E-013
 0.942954E-013
 0.942459E-013
 0.941947E-013
 0.941419E-013
 0.940874E-013
 0.940314E-013
 0.939740E-013
 0.939153E-013
 0.938552E-013
 0.937939E-013
 0.937314E-013
 0.936678E-013
 0.936031E-013
 0.935375E-013
 0.934710E-013
 0.934035E-013
 0.933353E-013
 0.932662E-013
 0.931965E-013
 0.931261E-013
 0.930550E-013
 0.929834E-013
 0.929112E-013
 0.928385E-013
 0.927653E-013
 0.926917E-013
 0.926176E-013
 0.925432E-013
 0.924683E-013
 0.923931E-013
 0.923176E-013
 0.922418E-013
 0.921657E-013
 0.920893E-013
 0.920127E-013
 0.919359E-013
 0.918585E-013
 0.917823E-013
 0.917004E-013
 0.916375E-013
 0.915148E-013
 0.915557E-013
 0.912015E-013
 0.916779E-013
 0.912015E-013
 0.907537E-013
 0.909420E-013
 0.907659E-013
 0.907627E-013
 0.906902E-013
 0.906420E-013
 0.905865E-013
 0.905332E-013
 0.904796E-013
 0.904262E-013
 0.903730E-013
 0.903201E-013
 0.902673E-013
 0.902147E-013
 0.901624E-013
 0.901102E-013
 0.900584E-013
 0.900068E-013
 0.899555E-013
 0.899046E-013
 0.898539E-013
 0.898037E-013
 0.897538E-013
 0.897043E-013
 0.896552E-013
 0.896066E-013
 0.895585E-013
 0.895110E-013
 0.894640E-013
 0.894176E-013
 0.893718E-013
 0.893267E-013
 0.892824E-013
 0.892388E-013
 0.891961E-013
 0.891541E-013
 0.891131E-013
 0.890731E-013
 0.890340E-013
 0.889960E-013
 0.889591E-013
 0.889234E-013
 0.888888E-013
 0.888555E-013
 0.888235E-013
 0.887929E-013
 0.887636E-013
 0.887358E-013
 0.887095E-013
 0.886847E-013
 0.886615E-013
 0.886399E-013
 0.886200E-013
 0.886018E-013
 0.885852E-013
 0.885705E-013
 0.885575E-013
 0.885463E-013
 0.885370E-013
 0.885295E-013
 0.885238E-013
 0.885201E-013
 0.885182E-013
 0.885182E-013
 0.885201E-013
 0.885238E-013
 0.885295E-013
 0.885370E-013
 0.885463E-013
 0.885575E-013
 0.885705E-013
 0.885852E-013
 0.886018E-013
 0.886200E-013
 0.886399E-013
 0.886615E-013
 0.886847E-013
 0.887095E-013
 0.887358E-013
 0.887636E-013
 0.887929E-013
 0.888235E-013
 0.888555E-013
 0.888888E-013
 0.889234E-013
 0.889591E-013
 0.889960E-013
 0.890340E-013
 0.890731E-013
 0.891131E-013
 0.891541E-013
 0.891961E-013
 0.892388E-013
 0.892824E-013
 0.893268E-013
 0.893718E-013
 0.894176E-013
 0.894640E-013
 0.895110E-013
 0.895585E-013
 0.896066E-013
 0.896552E-013
 0.897043E-013
 0.897538E-013
 0.898037E-013
 0.898539E-013
 0.899046E-013
 0.899555E-013
 0.900068E-013
 0.900584E-013
 0.901102E-013
 0.901624E-013
 0.902147E-013
 0.902673E-013
 0.903201E-013
 0.903731E-013
 0.904262E-013
 0.904796E-013
 0.905332E-013
 0.905865E-013
 0.906420E-013
 0.906902E-013
 0.907627E-013
 0.907659E-013
 0.909420E-013
 0.907537E-013
 0.912015E-013
 0.915557E-013
 0.909420E-013
 0.913411E-013
 0.911926E-013
 0.912966E-013
 0.913002E-013
 0.913384E-013
 0.913660E-013
 0.913964E-013
 0.914260E-013
 0.914556E-013
 0.914851E-013
 0.915145E-013
 0.915437E-013
 0.915728E-013
 0.916019E-013
 0.916307E-013
 0.916595E-013
 0.916880E-013
 0.917165E-013
 0.917447E-013
 0.917728E-013
 0.918007E-013
 0.918283E-013
 0.918558E-013
 0.918830E-013
 0.919099E-013
 0.919366E-013
 0.919629E-013
 0.919890E-013
 0.920147E-013
 0.920401E-013
 0.920651E-013
 0.920897E-013
 0.921139E-013
 0.921376E-013
 0.921609E-013
 0.921836E-013
 0.922058E-013
 0.922275E-013
 0.922486E-013
 0.922691E-013
 0.922889E-013
 0.923081E-013
 0.923266E-013
 0.923443E-013
 0.923613E-013
 0.923776E-013
 0.923930E-013
 0.924076E-013
 0.924214E-013
 0.924343E-013
 0.924463E-013
 0.924573E-013
 0.924675E-013
 0.924766E-013
 0.924848E-013
 0.924921E-013
 0.924983E-013
 0.925035E-013
 0.925076E-013
 0.925107E-013
 0.925128E-013
 0.925139E-013
 0.925139E-013
 0.925128E-013
 0.925107E-013
 0.925076E-013
 0.925035E-013
 0.924983E-013
 0.924921E-013
 0.924848E-013
 0.924766E-013
 0.924675E-013
 0.924573E-013
 0.924463E-013
 0.924343E-013
 0.924214E-013
 0.924076E-013
 0.923930E-013
 0.923776E-013
 0.923613E-013
 0.923443E-013
 0.923266E-013
 0.923081E-013
 0.922889E-013
 0.922691E-013
 0.922486E-013
 0.922275E-013
 0.922058E-013
 0.921836E-013
 0.921608E-013
 0.921376E-013
 0.921139E-013
 0.920897E-013
 0.920651E-013
 0.920401E-013
 0.920147E-013
 0.919890E-013
 0.919629E-013
 0.919365E-013
 0.919099E-013
 0.918829E-013
 0.918557E-013
 0.918283E-013
 0.918006E-013
 0.917728E-013
 0.917447E-013
 0.917165E-013
 0.916880E-013
 0.916595E-013
 0.916307E-013
 0.916018E-013
 0.915728E-013
 0.915437E-013
 0.915144E-013
 0.914851E-013
 0.914556E-013
 0.914260E-013
 0.913964E-013
 0.913660E-013
 0.913384E-013
 0.913002E-013
 0.912966E-013
 0.911926E-013
 0.913411E-013
 0.909420E-013
 0.915557E-013
 0.915148E-013
 0.907659E-013
 0.911926E-013
 0.909600E-013
 0.910381E-013
 0.909912E-013
 0.909881E-013
 0.909715E-013
 0.909587E-013
 0.909450E-013
 0.909315E-013
 0.909180E-013
 0.909046E-013
 0.908913E-013
 0.908780E-013
 0.908648E-013
 0.908516E-013
 0.908385E-013
 0.908255E-013
 0.908125E-013
 0.907997E-013
 0.907869E-013
 0.907741E-013
 0.907615E-013
 0.907490E-013
 0.907366E-013
 0.907243E-013
 0.907122E-013
 0.907001E-013
 0.906883E-013
 0.906765E-013
 0.906650E-013
 0.906536E-013
 0.906423E-013
 0.906313E-013
 0.906205E-013
 0.906099E-013
 0.905995E-013
 0.905894E-013
 0.905795E-013
 0.905699E-013
 0.905605E-013
 0.905515E-013
 0.905427E-013
 0.905343E-013
 0.905262E-013
 0.905184E-013
 0.905110E-013
 0.905039E-013
 0.904973E-013
 0.904910E-013
 0.904851E-013
 0.904796E-013
 0.904746E-013
 0.904700E-013
 0.904658E-013
 0.904620E-013
 0.904587E-013
 0.904559E-013
 0.904535E-013
 0.904516E-013
 0.904502E-013
 0.904493E-013
 0.904488E-013
 0.904488E-013
 0.904493E-013
 0.904502E-013
 0.904516E-013
 0.904535E-013
 0.904559E-013
 0.904587E-013
 0.904620E-013
 0.904658E-013
 0.904700E-013
 0.904746E-013
 0.904796E-013
 0.904851E-013
 0.904910E-013
 0.904973E-013
 0.905040E-013
 0.905110E-013
 0.905184E-013
 0.905262E-013
 0.905343E-013
 0.905427E-013
 0.905515E-013
 0.905605E-013
 0.905699E-013
 0.905795E-013
 0.905894E-013
 0.905995E-013
 0.906099E-013
 0.906205E-013
 0.906313E-013
 0.906423E-013
 0.906536E-013
 0.906650E-013
 0.906765E-013
 0.906883E-013
 0.907002E-013
 0.907122E-013
 0.907243E-013
 0.907366E-013
 0.907490E-013
 0.907615E-013
 0.907742E-013
 0.907869E-013
 0.907997E-013
 0.908125E-013
 0.908255E-013
 0.908385E-013
 0.908516E-013
 0.908648E-013
 0.908780E-013
 0.908913E-013
 0.909047E-013
 0.909180E-013
 0.909315E-013
 0.909450E-013
 0.909587E-013
 0.909715E-013
 0.909881E-013
 0.909913E-013
 0.910381E-013
 0.909600E-013
 0.911926E-013
 0.907659E-013
 0.915148E-013
 0.916375E-013
 0.907627E-013
 0.912966E-013
 0.910381E-013
 0.911546E-013
 0.911196E-013
 0.911376E-013
 0.911393E-013
 0.911454E-013
 0.911504E-013
 0.911556E-013
 0.911608E-013
 0.911659E-013
 0.911711E-013
 0.911762E-013
 0.911813E-013
 0.911864E-013
 0.911914E-013
 0.911964E-013
 0.912014E-013
 0.912064E-013
 0.912113E-013
 0.912162E-013
 0.912210E-013
 0.912258E-013
 0.912306E-013
 0.912353E-013
 0.912400E-013
 0.912446E-013
 0.912492E-013
 0.912537E-013
 0.912582E-013
 0.912626E-013
 0.912669E-013
 0.912711E-013
 0.912753E-013
 0.912794E-013
 0.912834E-013
 0.912873E-013
 0.912911E-013
 0.912948E-013
 0.912984E-013
 0.913018E-013
 0.913052E-013
 0.913085E-013
 0.913116E-013
 0.913146E-013
 0.913174E-013
 0.913201E-013
 0.913227E-013
 0.913251E-013
 0.913274E-013
 0.913295E-013
 0.913314E-013
 0.913332E-013
 0.913348E-013
 0.913363E-013
 0.913375E-013
 0.913386E-013
 0.913395E-013
 0.913403E-013
 0.913408E-013
 0.913412E-013
 0.913414E-013
 0.913414E-013
 0.913412E-013
 0.913408E-013
 0.913403E-013
 0.913395E-013
 0.913386E-013
 0.913375E-013
 0.913363E-013
 0.913348E-013
 0.913332E-013
 0.913314E-013
 0.913295E-013
 0.913274E-013
 0.913251E-013
 0.913227E-013
 0.913201E-013
 0.913174E-013
 0.913146E-013
 0.913116E-013
 0.913084E-013
 0.913052E-013
 0.913018E-013
 0.912984E-013
 0.912948E-013
 0.912911E-013
 0.912872E-013
 0.912833E-013
 0.912794E-013
 0.912753E-013
 0.912711E-013
 0.912669E-013
 0.912626E-013
 0.912582E-013
 0.912537E-013
 0.912492E-013
 0.912446E-013
 0.912400E-013
 0.912353E-013
 0.912306E-013
 0.912258E-013
 0.912210E-013
 0.912162E-013
 0.912113E-013
 0.912063E-013
 0.912014E-013
 0.911964E-013
 0.911914E-013
 0.911864E-013
 0.911813E-013
 0.911762E-013
 0.911711E-013
 0.911659E-013
 0.911608E-013
 0.911556E-013
 0.911504E-013
 0.911454E-013
 0.911393E-013
 0.911376E-013
 0.911196E-013
 0.911546E-013
 0.910381E-013
 0.912966E-013
 0.907627E-013
 0.916375E-013
 0.917004E-013
 0.906902E-013
 0.913002E-013
 0.909912E-013
 0.911196E-013
 0.910705E-013
 0.910838E-013
 0.910779E-013
 0.910772E-013
 0.910752E-013
 0.910735E-013
 0.910718E-013
 0.910701E-013
 0.910684E-013
 0.910667E-013
 0.910650E-013
 0.910633E-013
 0.910617E-013
 0.910600E-013
 0.910583E-013
 0.910567E-013
 0.910551E-013
 0.910535E-013
 0.910518E-013
 0.910502E-013
 0.910487E-013
 0.910471E-013
 0.910455E-013
 0.910440E-013
 0.910425E-013
 0.910410E-013
 0.910395E-013
 0.910381E-013
 0.910366E-013
 0.910352E-013
 0.910339E-013
 0.910325E-013
 0.910312E-013
 0.910299E-013
 0.910286E-013
 0.910274E-013
 0.910262E-013
 0.910251E-013
 0.910239E-013
 0.910229E-013
 0.910218E-013
 0.910209E-013
 0.910199E-013
 0.910190E-013
 0.910182E-013
 0.910174E-013
 0.910166E-013
 0.910159E-013
 0.910153E-013
 0.910147E-013
 0.910142E-013
 0.910137E-013
 0.910133E-013
 0.910129E-013
 0.910126E-013
 0.910124E-013
 0.910122E-013
 0.910121E-013
 0.910120E-013
 0.910120E-013
 0.910121E-013
 0.910122E-013
 0.910124E-013
 0.910126E-013
 0.910129E-013
 0.910133E-013
 0.910137E-013
 0.910142E-013
 0.910147E-013
 0.910153E-013
 0.910159E-013
 0.910166E-013
 0.910174E-013
 0.910182E-013
 0.910190E-013
 0.910199E-013
 0.910209E-013
 0.910218E-013
 0.910229E-013
 0.910239E-013
 0.910251E-013
 0.910262E-013
 0.910274E-013
 0.910286E-013
 0.910299E-013
 0.910312E-013
 0.910325E-013
 0.910339E-013
 0.910352E-013
 0.910366E-013
 0.910381E-013
 0.910395E-013
 0.910410E-013
 0.910425E-013
 0.910440E-013
 0.910455E-013
 0.910471E-013
 0.910487E-013
 0.910502E-013
 0.910518E-013
 0.910535E-013
 0.910551E-013
 0.910567E-013
 0.910583E-013
 0.910600E-013
 0.910617E-013
 0.910633E-013
 0.910650E-013
 0.910667E-013
 0.910684E-013
 0.910701E-013
 0.910718E-013
 0.910735E-013
 0.910752E-013
 0.910772E-013
 0.910779E-013
 0.910838E-013
 0.910705E-013
 0.911196E-013
 0.909913E-013
 0.913002E-013
 0.906902E-013
 0.917004E-013
 0.917823E-013
 0.906420E-013
 0.913384E-013
 0.909881E-013
 0.911376E-013
 0.910838E-013
 0.911015E-013
 0.910972E-013
 0.910989E-013
 0.910992E-013
 0.910997E-013
 0.911002E-013
 0.911007E-013
 0.911012E-013
 0.911017E-013
 0.911022E-013
 0.911027E-013
 0.911031E-013
 0.911036E-013
 0.911041E-013
 0.911046E-013
 0.911051E-013
 0.911055E-013
 0.911060E-013
 0.911065E-013
 0.911069E-013
 0.911074E-013
 0.911078E-013
 0.911083E-013
 0.911087E-013
 0.911092E-013
 0.911096E-013
 0.911100E-013
 0.911105E-013
 0.911109E-013
 0.911113E-013
 0.911117E-013
 0.911121E-013
 0.911124E-013
 0.911128E-013
 0.911132E-013
 0.911135E-013
 0.911139E-013
 0.911142E-013
 0.911145E-013
 0.911148E-013
 0.911151E-013
 0.911154E-013
 0.911156E-013
 0.911159E-013
 0.911161E-013
 0.911164E-013
 0.911166E-013
 0.911167E-013
 0.911169E-013
 0.911171E-013
 0.911172E-013
 0.911173E-013
 0.911175E-013
 0.911175E-013
 0.911176E-013
 0.911177E-013
 0.911177E-013
 0.911177E-013
 0.911177E-013
 0.911177E-013
 0.911177E-013
 0.911176E-013
 0.911175E-013
 0.911175E-013
 0.911173E-013
 0.911172E-013
 0.911171E-013
 0.911169E-013
 0.911167E-013
 0.911166E-013
 0.911164E-013
 0.911161E-013
 0.911159E-013
 0.911156E-013
 0.911154E-013
 0.911151E-013
 0.911148E-013
 0.911145E-013
 0.911142E-013
 0.911139E-013
 0.911135E-013
 0.911132E-013
 0.911128E-013
 0.911124E-013
 0.911121E-013
 0.911117E-013
 0.911113E-013
 0.911109E-013
 0.911105E-013
 0.911100E-013
 0.911096E-013
 0.911092E-013
 0.911087E-013
 0.911083E-013
 0.911078E-013
 0.911074E-013
 0.911069E-013
 0.911065E-013
 0.911060E-013
 0.911055E-013
 0.911051E-013
 0.911046E-013
 0.911041E-013
 0.911036E-013
 0.911031E-013
 0.911027E-013
 0.911022E-013
 0.911017E-013
 0.911012E-013
 0.911007E-013
 0.911002E-013
 0.910997E-013
 0.910992E-013
 0.910989E-013
 0.910972E-013
 0.911015E-013
 0.910838E-013
 0.911376E-013
 0.909881E-013
 0.913384E-013
 0.906420E-013
 0.917823E-013
 0.918585E-013
 0.905865E-013
 0.913660E-013
 0.909715E-013
 0.911393E-013
 0.910779E-013
 0.910972E-013
 0.910916E-013
 0.910928E-013
 0.910924E-013
 0.910923E-013
 0.910922E-013
 0.910921E-013
 0.910919E-013
 0.910918E-013
 0.910917E-013
 0.910916E-013
 0.910914E-013
 0.910913E-013
 0.910912E-013
 0.910911E-013
 0.910910E-013
 0.910908E-013
 0.910907E-013
 0.910906E-013
 0.910905E-013
 0.910904E-013
 0.910902E-013
 0.910901E-013
 0.910900E-013
 0.910899E-013
 0.910898E-013
 0.910897E-013
 0.910896E-013
 0.910895E-013
 0.910894E-013
 0.910893E-013
 0.910892E-013
 0.910891E-013
 0.910890E-013
 0.910889E-013
 0.910888E-013
 0.910888E-013
 0.910887E-013
 0.910886E-013
 0.910885E-013
 0.910885E-013
 0.910884E-013
 0.910883E-013
 0.910883E-013
 0.910882E-013
 0.910882E-013
 0.910881E-013
 0.910881E-013
 0.910880E-013
 0.910880E-013
 0.910880E-013
 0.910879E-013
 0.910879E-013
 0.910879E-013
 0.910879E-013
 0.910879E-013
 0.910879E-013
 0.910878E-013
 0.910878E-013
 0.910879E-013
 0.910879E-013
 0.910879E-013
 0.910879E-013
 0.910879E-013
 0.910879E-013
 0.910880E-013
 0.910880E-013
 0.910880E-013
 0.910881E-013
 0.910881E-013
 0.910882E-013
 0.910882E-013
 0.910883E-013
 0.910883E-013
 0.910884E-013
 0.910885E-013
 0.910885E-013
 0.910886E-013
 0.910887E-013
 0.910888E-013
 0.910888E-013
 0.910889E-013
 0.910890E-013
 0.910891E-013
 0.910892E-013
 0.910893E-013
 0.910894E-013
 0.910895E-013
 0.910896E-013
 0.910897E-013
 0.910898E-013
 0.910899E-013
 0.910900E-013
 0.910901E-013
 0.910902E-013
 0.910904E-013
 0.910905E-013
 0.910906E-013
 0.910907E-013
 0.910908E-013
 0.910910E-013
 0.910911E-013
 0.910912E-013
 0.910913E-013
 0.910914E-013
 0.910916E-013
 0.910917E-013
 0.910918E-013
 0.910919E-013
 0.910921E-013
 0.910922E-013
 0.910923E-013
 0.910924E-013
 0.910928E-013
 0.910916E-013
 0.910972E-013
 0.910779E-013
 0.911393E-013
 0.909715E-013
 0.913660E-013
 0.905865E-013
 0.918585E-013
 0.919359E-013
 0.905332E-013
 0.913964E-013
 0.909587E-013
 0.911454E-013
 0.910772E-013
 0.910989E-013
 0.910928E-013
 0.910944E-013
 0.910941E-013
 0.910942E-013
 0.910942E-013
 0.910942E-013
 0.910943E-013
 0.910943E-013
 0.910943E-013
 0.910944E-013
 0.910944E-013
 0.910944E-013
 0.910945E-013
 0.910945E-013
 0.910945E-013
 0.910945E-013
 0.910946E-013
 0.910946E-013
 0.910946E-013
 0.910947E-013
 0.910947E-013
 0.910947E-013
 0.910947E-013
 0.910948E-013
 0.910948E-013
 0.910948E-013
 0.910949E-013
 0.910949E-013
 0.910949E-013
 0.910949E-013
 0.910950E-013
 0.910950E-013
 0.910950E-013
 0.910951E-013
 0.910951E-013
 0.910951E-013
 0.910951E-013
 0.910952E-013
 0.910952E-013
 0.910952E-013
 0.910952E-013
 0.910952E-013
 0.910953E-013
 0.910953E-013
 0.910953E-013
 0.910953E-013
 0.910953E-013
 0.910954E-013
 0.910954E-013
 0.910954E-013
 0.910954E-013
 0.910954E-013
 0.910954E-013
 0.910954E-013
 0.910954E-013
 0.910954E-013
 0.910954E-013
 0.910954E-013
 0.910954E-013
 0.910954E-013
 0.910954E-013
 0.910954E-013
 0.910954E-013
 0.910954E-013
 0.910954E-013
 0.910954E-013
 0.910954E-013
 0.910953E-013
 0.910953E-013
 0.910953E-013
 0.910953E-013
 0.910953E-013
 0.910952E-013
 0.910952E-013
 0.910952E-013
 0.910952E-013
 0.910952E-013
 0.910951E-013
 0.910951E-013
 0.910951E-013
 0.910951E-013
 0.910950E-013
 0.910950E-013
 0.910950E-013
 0.910949E-013
 0.910949E-013
 0.910949E-013
 0.910949E-013
 0.910948E-013
 0.910948E-013
 0.910948E-013
 0.910947E-013
 0.910947E-013
 0.910947E-013
 0.910947E-013
 0.910946E-013
 0.910946E-013
 0.910946E-013
 0.910945E-013
 0.910945E-013
 0.910945E-013
 0.910945E-013
 0.910944E-013
 0.910944E-013
 0.910944E-013
 0.910943E-013
 0.910943E-013
 0.910943E-013
 0.910942E-013
 0.910942E-013
 0.910942E-013
 0.910941E-013
 0.910944E-013
 0.910928E-013
 0.910989E-013
 0.910772E-013
 0.911454E-013
 0.909587E-013
 0.913964E-013
 0.905332E-013
 0.919359E-013
 0.920127E-013
 0.904796E-013
 0.914260E-013
 0.909450E-013
 0.911504E-013
 0.910752E-013
 0.910992E-013
 0.910924E-013
 0.910941E-013
 0.910937E-013
 0.910938E-013
 0.910938E-013
 0.910938E-013
 0.910937E-013
 0.910937E-013
 0.910937E-013
 0.910937E-013
 0.910937E-013
 0.910937E-013
 0.910937E-013
 0.910937E-013
 0.910937E-013
 0.910937E-013
 0.910937E-013
 0.910937E-013
 0.910937E-013
 0.910937E-013
 0.910937E-013
 0.910937E-013
 0.910937E-013
 0.910937E-013
 0.910937E-013
 0.910937E-013
 0.910937E-013
 0.910937E-013
 0.910937E-013
 0.910937E-013
 0.910937E-013
 0.910937E-013
 0.910937E-013
 0.910937E-013
 0.910937E-013
 0.910937E-013
 0.910937E-013
 0.910937E-013
 0.910937E-013
 0.910937E-013
 0.910937E-013
 0.910937E-013
 0.910937E-013
 0.910937E-013
 0.910937E-013
 0.910937E-013
 0.910937E-013
 0.910937E-013
 0.910937E-013
 0.910937E-013
 0.910937E-013
 0.910937E-013
 0.910937E-013
 0.910937E-013
 0.910937E-013
 0.910937E-013
 0.910937E-013
 0.910937E-013
 0.910937E-013
 0.910937E-013
 0.910937E-013
 0.910937E-013
 0.910937E-013
 0.910937E-013
 0.910937E-013
 0.910937E-013
 0.910937E-013
 0.910937E-013
 0.910937E-013
 0.910937E-013
 0.910937E-013
 0.910937E-013
 0.910937E-013
 0.910937E-013
 0.910937E-013
 0.910937E-013
 0.910937E-013
 0.910937E-013
 0.910937E-013
 0.910937E-013
 0.910937E-013
 0.910937E-013
 0.910937E-013
 0.910937E-013
 0.910937E-013
 0.910937E-013
 0.910937E-013
 0.910937E-013
 0.910937E-013
 0.910937E-013
 0.910937E-013
 0.910937E-013
 0.910937E-013
 0.910937E-013
 0.910937E-013
 0.910937E-013
 0.910937E-013
 0.910937E-013
 0.910937E-013
 0.910937E-013
 0.910937E-013
 0.910937E-013
 0.910937E-013
 0.910937E-013
 0.910937E-013
 0.910937E-013
 0.910937E-013
 0.910937E-013
 0.910938E-013
 0.910938E-013
 0.910938E-013
 0.910937E-013
 0.910941E-013
 0.910924E-013
 0.910992E-013
 0.910752E-013
 0.911504E-013
 0.909450E-013
 0.914260E-013
 0.904796E-013
 0.920127E-013
 0.920893E-013
 0.904262E-013
 0.914556E-013
 0.909315E-013
 0.911556E-013
 0.910735E-013
 0.910997E-013
 0.910923E-013
 0.910942E-013
 0.910938E-013
 0.910939E-013
 0.910939E-013
 0.910939E-013
 0.910939E-013
 0.910939E-013
 0.910939E-013
 0.910939E-013
 0.910939E-013
 0.910939E-013
 0.910939E-013
 0.910939E-013
 0.910939E-013
 0.910939E-013
 0.910939E-013
 0.910939E-013
 0.910939E-013
 0.910939E-013
 0.910939E-013
 0.910939E-013
 0.910939E-013
 0.910939E-013
 0.910939E-013
 0.910939E-013
 0.910939E-013
 0.910939E-013
 0.910939E-013
 0.910940E-013
 0.910940E-013
 0.910940E-013
 0.910940E-013
 0.910940E-013
 0.910940E-013
 0.910940E-013
 0.910940E-013
 0.910940E-013
 0.910940E-013
 0.910940E-013
 0.910940E-013
 0.910940E-013