# vtk DataFile Version 3.0
Solution data
ASCII
DATASET STRUCTURED_GRID
DIMENSIONS 128 128 1
POINTS 16384  double
      0.000004      0.000004      0.000000
      0.000012      0.000004      0.000000
      0.000020      0.000004      0.000000
      0.000027      0.000004      0.000000
      0.000035      0.000004      0.000000
      0.000043      0.000004      0.000000
      0.000051      0.000004      0.000000
      0.000059      0.000004      0.000000
      0.000066      0.000004      0.000000
      0.000074      0.000004      0.000000
      0.000082      0.000004      0.000000
      0.000090      0.000004      0.000000
      0.000098      0.000004      0.000000
      0.000105      0.000004      0.000000
      0.000113      0.000004      0.000000
      0.000121      0.000004      0.000000
      0.000129      0.000004      0.000000
      0.000137      0.000004      0.000000
      0.000145      0.000004      0.000000
      0.000152      0.000004      0.000000
      0.000160      0.000004      0.000000
      0.000168      0.000004      0.000000
      0.000176      0.000004      0.000000
      0.000184      0.000004      0.000000
      0.000191      0.000004      0.000000
      0.000199      0.000004      0.000000
      0.000207      0.000004      0.000000
      0.000215      0.000004      0.000000
      0.000223      0.000004      0.000000
      0.000230      0.000004      0.000000
      0.000238      0.000004      0.000000
      0.000246      0.000004      0.000000
      0.000254      0.000004      0.000000
      0.000262      0.000004      0.000000
      0.000270      0.000004      0.000000
      0.000277      0.000004      0.000000
      0.000285      0.000004      0.000000
      0.000293      0.000004      0.000000
      0.000301      0.000004      0.000000
      0.000309      0.000004      0.000000
      0.000316      0.000004      0.000000
      0.000324      0.000004      0.000000
      0.000332      0.000004      0.000000
      0.000340      0.000004      0.000000
      0.000348      0.000004      0.000000
      0.000355      0.000004      0.000000
      0.000363      0.000004      0.000000
      0.000371      0.000004      0.000000
      0.000379      0.000004      0.000000
      0.000387      0.000004      0.000000
      0.000395      0.000004      0.000000
      0.000402      0.000004      0.000000
      0.000410      0.000004      0.000000
      0.000418      0.000004      0.000000
      0.000426      0.000004      0.000000
      0.000434      0.000004      0.000000
      0.000441      0.000004      0.000000
      0.000449      0.000004      0.000000
      0.000457      0.000004      0.000000
      0.000465      0.000004      0.000000
      0.000473      0.000004      0.000000
      0.000480      0.000004      0.000000
      0.000488      0.000004      0.000000
      0.000496      0.000004      0.000000
      0.000504      0.000004      0.000000
      0.000512      0.000004      0.000000
      0.000520      0.000004      0.000000
      0.000527      0.000004      0.000000
      0.000535      0.000004      0.000000
      0.000543      0.000004      0.000000
      0.000551      0.000004      0.000000
      0.000559      0.000004      0.000000
      0.000566      0.000004      0.000000
      0.000574      0.000004      0.000000
      0.000582      0.000004      0.000000
      0.000590      0.000004      0.000000
      0.000598      0.000004      0.000000
      0.000605      0.000004      0.000000
      0.000613      0.000004      0.000000
      0.000621      0.000004      0.000000
      0.000629      0.000004      0.000000
      0.000637      0.000004      0.000000
      0.000645      0.000004      0.000000
      0.000652      0.000004      0.000000
      0.000660      0.000004      0.000000
      0.000668      0.000004      0.000000
      0.000676      0.000004      0.000000
      0.000684      0.000004      0.000000
      0.000691      0.000004      0.000000
      0.000699      0.000004      0.000000
      0.000707      0.000004      0.000000
      0.000715      0.000004      0.000000
      0.000723      0.000004      0.000000
      0.000730      0.000004      0.000000
      0.000738      0.000004      0.000000
      0.000746      0.000004      0.000000
      0.000754      0.000004      0.000000
      0.000762      0.000004      0.000000
      0.000770      0.000004      0.000000
      0.000777      0.000004      0.000000
      0.000785      0.000004      0.000000
      0.000793      0.000004      0.000000
      0.000801      0.000004      0.000000
      0.000809      0.000004      0.000000
      0.000816      0.000004      0.000000
      0.000824      0.000004      0.000000
      0.000832      0.000004      0.000000
      0.000840      0.000004      0.000000
      0.000848      0.000004      0.000000
      0.000855      0.000004      0.000000
      0.000863      0.000004      0.000000
      0.000871      0.000004      0.000000
      0.000879      0.000004      0.000000
      0.000887      0.000004      0.000000
      0.000895      0.000004      0.000000
      0.000902      0.000004      0.000000
      0.000910      0.000004      0.000000
      0.000918      0.000004      0.000000
      0.000926      0.000004      0.000000
      0.000934      0.000004      0.000000
      0.000941      0.000004      0.000000
      0.000949      0.000004      0.000000
      0.000957      0.000004      0.000000
      0.000965      0.000004      0.000000
      0.000973      0.000004      0.000000
      0.000980      0.000004      0.000000
      0.000988      0.000004      0.000000
      0.000996      0.000004      0.000000
      0.000004      0.000012      0.000000
      0.000012      0.000012      0.000000
      0.000020      0.000012      0.000000
      0.000027      0.000012      0.000000
      0.000035      0.000012      0.000000
      0.000043      0.000012      0.000000
      0.000051      0.000012      0.000000
      0.000059      0.000012      0.000000
      0.000066      0.000012      0.000000
      0.000074      0.000012      0.000000
      0.000082      0.000012      0.000000
      0.000090      0.000012      0.000000
      0.000098      0.000012      0.000000
      0.000105      0.000012      0.000000
      0.000113      0.000012      0.000000
      0.000121      0.000012      0.000000
      0.000129      0.000012      0.000000
      0.000137      0.000012      0.000000
      0.000145      0.000012      0.000000
      0.000152      0.000012      0.000000
      0.000160      0.000012      0.000000
      0.000168      0.000012      0.000000
      0.000176      0.000012      0.000000
      0.000184      0.000012      0.000000
      0.000191      0.000012      0.000000
      0.000199      0.000012      0.000000
      0.000207      0.000012      0.000000
      0.000215      0.000012      0.000000
      0.000223      0.000012      0.000000
      0.000230      0.000012      0.000000
      0.000238      0.000012      0.000000
      0.000246      0.000012      0.000000
      0.000254      0.000012      0.000000
      0.000262      0.000012      0.000000
      0.000270      0.000012      0.000000
      0.000277      0.000012      0.000000
      0.000285      0.000012      0.000000
      0.000293      0.000012      0.000000
      0.000301      0.000012      0.000000
      0.000309      0.000012      0.000000
      0.000316      0.000012      0.000000
      0.000324      0.000012      0.000000
      0.000332      0.000012      0.000000
      0.000340      0.000012      0.000000
      0.000348      0.000012      0.000000
      0.000355      0.000012      0.000000
      0.000363      0.000012      0.000000
      0.000371      0.000012      0.000000
      0.000379      0.000012      0.000000
      0.000387      0.000012      0.000000
      0.000395      0.000012      0.000000
      0.000402      0.000012      0.000000
      0.000410      0.000012      0.000000
      0.000418      0.000012      0.000000
      0.000426      0.000012      0.000000
      0.000434      0.000012      0.000000
      0.000441      0.000012      0.000000
      0.000449      0.000012      0.000000
      0.000457      0.000012      0.000000
      0.000465      0.000012      0.000000
      0.000473      0.000012      0.000000
      0.000480      0.000012      0.000000
      0.000488      0.000012      0.000000
      0.000496      0.000012      0.000000
      0.000504      0.000012      0.000000
      0.000512      0.000012      0.000000
      0.000520      0.000012      0.000000
      0.000527      0.000012      0.000000
      0.000535      0.000012      0.000000
      0.000543      0.000012      0.000000
      0.000551      0.000012      0.000000
      0.000559      0.000012      0.000000
      0.000566      0.000012      0.000000
      0.000574      0.000012      0.000000
      0.000582      0.000012      0.000000
      0.000590      0.000012      0.000000
      0.000598      0.000012      0.000000
      0.000605      0.000012      0.000000
      0.000613      0.000012      0.000000
      0.000621      0.000012      0.000000
      0.000629      0.000012      0.000000
      0.000637      0.000012      0.000000
      0.000645      0.000012      0.000000
      0.000652      0.000012      0.000000
      0.000660      0.000012      0.000000
      0.000668      0.000012      0.000000
      0.000676      0.000012      0.000000
      0.000684      0.000012      0.000000
      0.000691      0.000012      0.000000
      0.000699      0.000012      0.000000
      0.000707      0.000012      0.000000
      0.000715      0.000012      0.000000
      0.000723      0.000012      0.000000
      0.000730      0.000012      0.000000
      0.000738      0.000012      0.000000
      0.000746      0.000012      0.000000
      0.000754      0.000012      0.000000
      0.000762      0.000012      0.000000
      0.000770      0.000012      0.000000
      0.000777      0.000012      0.000000
      0.000785      0.000012      0.000000
[...]
POINT_DATA 16384
SCALARS rhoe double
LOOKUP_TABLE default
 0.916351E-013
 0.912488E-013
 0.915414E-013
 0.915548E-013
 0.916654E-013
 0.917465E-013
 0.918350E-013
 0.919216E-013
 0.920082E-013
 0.920946E-013
 0.921806E-013
 0.922664E-013
 0.923519E-013
 0.924371E-013
 0.925220E-013
 0.926065E-013
 0.926906E-013
 0.927743E-013
 0.928577E-013
 0.929405E-013
 0.930229E-013
 0.931047E-013
 0.931860E-013
 0.932668E-013
 0.933468E-013
 0.934262E-013
 0.935048E-013
 0.935827E-013
 0.936597E-013
 0.937358E-013
 0.938110E-013
 0.938851E-013
 0.939581E-013
 0.940300E-013
 0.941007E-013
 0.941700E-013
 0.942380E-013
 0.943045E-013
 0.943695E-013
 0.944328E-013
 0.944945E-013
 0.945544E-013
 0.946124E-013
 0.946685E-013
 0.947226E-013
 0.947746E-013
 0.948244E-013
 0.948719E-013
 0.949171E-013
 0.949598E-013
 0.950001E-013
 0.950378E-013
 0.950729E-013
 0.951053E-013
 0.951350E-013
 0.951618E-013
 0.951858E-013
 0.952069E-013
 0.952251E-013
 0.952403E-013
 0.952525E-013
 0.952617E-013
 0.952678E-013
 0.952709E-013
 0.952709E-013
 0.952678E-013
 0.952617E-013
 0.952525E-013
 0.952403E-013
 0.952251E-013
 0.952070E-013
 0.951858E-013
 0.951618E-013
 0.951350E-013
 0.951053E-013
 0.950729E-013
 0.950378E-013
 0.950001E-013
 0.949598E-013
 0.949171E-013
 0.948719E-013
 0.948244E-013
 0.947746E-013
 0.947226E-013
 0.946685E-013
 0.946125E-013
 0.945544E-013
 0.944945E-013
 0.944329E-013
 0.943695E-013
 0.943045E-013
 0.942380E-013
 0.941700E-013
 0.941007E-013
 0.940300E-013
 0.939582E-013
 0.938851E-013
 0.938110E-013
 0.937358E-013
 0.936597E-013
 0.935827E-013
 0.935049E-013
 0.934262E-013
 0.933468E-013
 0.932668E-013
 0.931861E-013
 0.931048E-013
 0.930229E-013
 0.929405E-013
 0.928577E-013
 0.927743E-013
 0.926906E-013
 0.926065E-013
 0.925220E-013
 0.924371E-013
 0.923519E-013
 0.922664E-013
 0.921807E-013
 0.920946E-013
 0.920082E-013
 0.919216E-013
 0.918350E-013
 0.917465E-013
 0.916654E-013
 0.915548E-013
 0.915414E-013
 0.912488E-013
 0.916351E-013
 0.912488E-013
 0.907810E-013
 0.909440E-013
 0.908016E-013
 0.907787E-013
 0.907171E-013
 0.906664E-013
 0.906132E-013
 0.905608E-013
 0.905084E-013
 0.904561E-013
 0.904041E-013
 0.903522E-013
 0.903006E-013
 0.902491E-013
 0.901978E-013
 0.901468E-013
 0.900960E-013
 0.900455E-013
 0.899952E-013
 0.899452E-013
 0.898956E-013
 0.898462E-013
 0.897973E-013
 0.897487E-013
 0.897005E-013
 0.896528E-013
 0.896055E-013
 0.895587E-013
 0.895125E-013
 0.894669E-013
 0.894219E-013
 0.893775E-013
 0.893338E-013
 0.892909E-013
 0.892488E-013
 0.892075E-013
 0.891671E-013
 0.891276E-013
 0.890890E-013
 0.890516E-013
 0.890151E-013
 0.889799E-013
 0.889457E-013
 0.889129E-013
 0.888813E-013
 0.888510E-013
 0.888221E-013
 0.887946E-013
 0.887686E-013
 0.887440E-013
 0.887211E-013
 0.886997E-013
 0.886800E-013
 0.886620E-013
 0.886456E-013
 0.886310E-013
 0.886182E-013
 0.886071E-013
 0.885978E-013
 0.885904E-013
 0.885848E-013
 0.885811E-013
 0.885793E-013
 0.885793E-013
 0.885811E-013
 0.885848E-013
 0.885904E-013
 0.885979E-013
 0.886071E-013
 0.886182E-013
 0.886310E-013
 0.886456E-013
 0.886620E-013
 0.886800E-013
 0.886997E-013
 0.887211E-013
 0.887441E-013
 0.887686E-013
 0.887946E-013
 0.888221E-013
 0.888510E-013
 0.888813E-013
 0.889129E-013
 0.889458E-013
 0.889799E-013
 0.890152E-013
 0.890516E-013
 0.890891E-013
 0.891276E-013
 0.891671E-013
 0.892075E-013
 0.892488E-013
 0.892909E-013
 0.893339E-013
 0.893775E-013
 0.894219E-013
 0.894669E-013
 0.895125E-013
 0.895588E-013
 0.896055E-013
 0.896528E-013
 0.897005E-013
 0.897487E-013
 0.897973E-013
 0.898463E-013
 0.898956E-013
 0.899453E-013
 0.899952E-013
 0.900455E-013
 0.900960E-013
 0.901468E-013
 0.901979E-013
 0.902491E-013
 0.903006E-013
 0.903523E-013
 0.904041E-013
 0.904561E-013
 0.905084E-013
 0.905608E-013
 0.906132E-013
 0.906664E-013
 0.907171E-013
 0.907787E-013
 0.908016E-013
 0.909440E-013
 0.907810E-013
 0.912488E-013
 0.915414E-013
 0.909440E-013
 0.912818E-013
 0.911787E-013
 0.912462E-013
 0.912583E-013
 0.912857E-013
 0.913093E-013
 0.913336E-013
 0.913577E-013
 0.913818E-013
 0.914057E-013
 0.914296E-013
 0.914534E-013
 0.914770E-013
 0.915006E-013
 0.915241E-013
 0.915475E-013
 0.915707E-013
 0.915938E-013
 0.916168E-013
 0.916396E-013
 0.916623E-013
 0.916848E-013
 0.917071E-013
 0.917293E-013
 0.917512E-013
 0.917729E-013
 0.917944E-013
 0.918157E-013
 0.918366E-013
 0.918573E-013
 0.918777E-013
 0.918977E-013
 0.919175E-013
 0.919368E-013
 0.919558E-013
 0.919743E-013
 0.919925E-013
 0.920102E-013
 0.920274E-013
 0.920441E-013
 0.920603E-013
 0.920760E-013
 0.920911E-013
 0.921056E-013
 0.921195E-013
 0.921328E-013
 0.921454E-013
 0.921574E-013
 0.921686E-013
 0.921792E-013
 0.921890E-013
 0.921980E-013
 0.922063E-013
 0.922138E-013
 0.922205E-013
 0.922264E-013
 0.922315E-013
 0.922358E-013
 0.922392E-013
 0.922417E-013
 0.922434E-013
 0.922443E-013
 0.922443E-013
 0.922434E-013
 0.922417E-013
 0.922392E-013
 0.922358E-013
 0.922315E-013
 0.922264E-013
 0.922205E-013
 0.922138E-013
 0.922063E-013
 0.921980E-013
 0.921890E-013
 0.921791E-013
 0.921686E-013
 0.921574E-013
 0.921454E-013
 0.921328E-013
 0.921195E-013
 0.921056E-013
 0.920911E-013
 0.920760E-013
 0.920603E-013
 0.920441E-013
 0.920274E-013
 0.920102E-013
 0.919925E-013
 0.919743E-013
 0.919558E-013
 0.919368E-013
 0.919174E-013
 0.918977E-013
 0.918777E-013
 0.918573E-013
 0.918366E-013
 0.918156E-013
 0.917944E-013
 0.917729E-013
 0.917512E-013
 0.917293E-013
 0.917071E-013
 0.916848E-013
 0.916623E-013
 0.916396E-013
 0.916168E-013
 0.915938E-013
 0.915707E-013
 0.915474E-013
 0.915241E-013
 0.915006E-013
 0.914770E-013
 0.914534E-013
 0.914296E-013
 0.914057E-013
 0.913818E-013
 0.913577E-013
 0.913336E-013
 0.913093E-013
 0.912857E-013
 0.912583E-013
 0.912462E-013
 0.911787E-013
 0.912818E-013
 0.909440E-013
 0.915414E-013
 0.915548E-013
 0.908016E-013
 0.911787E-013
 0.910098E-013
 0.910553E-013
 0.910307E-013
 0.910256E-013
 0.910158E-013
 0.910071E-013
 0.909982E-013
 0.909894E-013
 0.909806E-013
 0.909719E-013
 0.909631E-013
 0.909544E-013
 0.909458E-013
 0.909371E-013
 0.909286E-013
 0.909200E-013
 0.909115E-013
 0.909031E-013
 0.908947E-013
 0.908864E-013
 0.908781E-013
 0.908699E-013
 0.908618E-013
 0.908537E-013
 0.908457E-013
 0.908378E-013
 0.908300E-013
 0.908223E-013
 0.908147E-013
 0.908072E-013
 0.907999E-013
 0.907926E-013
 0.907855E-013
 0.907786E-013
 0.907717E-013
 0.907651E-013
 0.907586E-013
 0.907522E-013
 0.907461E-013
 0.907401E-013
 0.907344E-013
 0.907288E-013
 0.907235E-013
 0.907184E-013
 0.907135E-013
 0.907089E-013
 0.907045E-013
 0.907004E-013
 0.906965E-013
 0.906929E-013
 0.906896E-013
 0.906865E-013
 0.906838E-013
 0.906813E-013
 0.906791E-013
 0.906773E-013
 0.906757E-013
 0.906745E-013
 0.906735E-013
 0.906729E-013
 0.906726E-013
 0.906726E-013
 0.906729E-013
 0.906735E-013
 0.906745E-013
 0.906757E-013
 0.906773E-013
 0.906791E-013
 0.906813E-013
 0.906838E-013
 0.906865E-013
 0.906896E-013
 0.906929E-013
 0.906965E-013
 0.907004E-013
 0.907045E-013
 0.907089E-013
 0.907135E-013
 0.907184E-013
 0.907235E-013
 0.907289E-013
 0.907344E-013
 0.907402E-013
 0.907461E-013
 0.907523E-013
 0.907586E-013
 0.907651E-013
 0.907717E-013
 0.907786E-013
 0.907855E-013
 0.907926E-013
 0.907999E-013
 0.908072E-013
 0.908147E-013
 0.908223E-013
 0.908300E-013
 0.908378E-013
 0.908457E-013
 0.908537E-013
 0.908618E-013
 0.908699E-013
 0.908781E-013
 0.908864E-013
 0.908947E-013
 0.909031E-013
 0.909115E-013
 0.909200E-013
 0.909286E-013
 0.909371E-013
 0.909458E-013
 0.909544E-013
 0.909631E-013
 0.909719E-013
 0.909806E-013
 0.909894E-013
 0.909982E-013
 0.910071E-013
 0.910159E-013
 0.910256E-013
 0.910307E-013
 0.910553E-013
 0.910098E-013
 0.911787E-013
 0.908016E-013
 0.915548E-013
 0.916654E-013
 0.907787E-013
 0.912462E-013
 0.910553E-013
 0.911243E-013
 0.911079E-013
 0.911154E-013
 0.911171E-013
 0.911200E-013
 0.911226E-013
 0.911253E-013
 0.911280E-013
 0.911307E-013
 0.911333E-013
 0.911360E-013
 0.911386E-013
 0.911412E-013
 0.911438E-013
 0.911464E-013
 0.911490E-013
 0.911516E-013
 0.911541E-013
 0.911567E-013
 0.911592E-013
 0.911617E-013
 0.911642E-013
 0.911666E-013
 0.911690E-013
 0.911714E-013
 0.911738E-013
 0.911761E-013
 0.911785E-013
 0.911807E-013
 0.911830E-013
 0.911852E-013
 0.911873E-013
 0.911895E-013
 0.911915E-013
 0.911936E-013
 0.911956E-013
 0.911975E-013
 0.911993E-013
 0.912012E-013
 0.912029E-013
 0.912046E-013
 0.912062E-013
 0.912078E-013
 0.912093E-013
 0.912107E-013
 0.912120E-013
 0.912133E-013
 0.912145E-013
 0.912156E-013
 0.912166E-013
 0.912175E-013
 0.912183E-013
 0.912191E-013
 0.912198E-013
 0.912203E-013
 0.912208E-013
 0.912212E-013
 0.912215E-013
 0.912217E-013
 0.912218E-013
 0.912218E-013
 0.912217E-013
 0.912215E-013
 0.912212E-013
 0.912208E-013
 0.912203E-013
 0.912198E-013
 0.912191E-013
 0.912183E-013
 0.912175E-013
 0.912166E-013
 0.912156E-013
 0.912145E-013
 0.912133E-013
 0.912120E-013
 0.912107E-013
 0.912093E-013
 0.912078E-013
 0.912062E-013
 0.912046E-013
 0.912029E-013
 0.912012E-013
 0.911993E-013
 0.911975E-013
 0.911956E-013
 0.911936E-013
 0.911915E-013
 0.911895E-013
 0.911873E-013
 0.911852E-013
 0.911830E-013
 0.911807E-013
 0.911785E-013
 0.911761E-013
 0.911738E-013
 0.911714E-013
 0.911690E-013
 0.911666E-013
 0.911641E-013
 0.911617E-013
 0.911592E-013
 0.911567E-013
 0.911541E-013
 0.911516E-013
 0.911490E-013
 0.911464E-013
 0.911438E-013
 0.911412E-013
 0.911386E-013
 0.911360E-013
 0.911333E-013
 0.911307E-013
 0.911280E-013
 0.911253E-013
 0.911226E-013
 0.911200E-013
 0.911171E-013
 0.911154E-013
 0.911079E-013
 0.911243E-013
 0.910553E-013
 0.912462E-013
 0.907787E-013
 0.916654E-013
 0.917465E-013
 0.907171E-013
 0.912583E-013
 0.910307E-013
 0.911079E-013
 0.910846E-013
 0.910896E-013
 0.910876E-013
 0.910872E-013
 0.910864E-013
 0.910857E-013
 0.910850E-013
 0.910844E-013
 0.910837E-013
 0.910830E-013
 0.910823E-013
 0.910816E-013
 0.910810E-013
 0.910803E-013
 0.910796E-013
 0.910790E-013
 0.910783E-013
 0.910776E-013
 0.910770E-013
 0.910763E-013
 0.910757E-013
 0.910751E-013
 0.910745E-013
 0.910738E-013
 0.910732E-013
 0.910726E-013
 0.910720E-013
 0.910714E-013
 0.910709E-013
 0.910703E-013
 0.910697E-013
 0.910692E-013
 0.910687E-013
 0.910681E-013
 0.910676E-013
 0.910671E-013
 0.910667E-013
 0.910662E-013
 0.910657E-013
 0.910653E-013
 0.910649E-013
 0.910645E-013
 0.910641E-013
 0.910638E-013
 0.910634E-013
 0.910631E-013
 0.910628E-013
 0.910625E-013
 0.910622E-013
 0.910620E-013
 0.910618E-013
 0.910616E-013
 0.910614E-013
 0.910613E-013
 0.910612E-013
 0.910611E-013
 0.910610E-013
 0.910610E-013
 0.910609E-013
 0.910609E-013
 0.910610E-013
 0.910610E-013
 0.910611E-013
 0.910612E-013
 0.910613E-013
 0.910614E-013
 0.910616E-013
 0.910618E-013
 0.910620E-013
 0.910623E-013
 0.910625E-013
 0.910628E-013
 0.910631E-013
 0.910634E-013
 0.910638E-013
 0.910641E-013
 0.910645E-013
 0.910649E-013
 0.910653E-013
 0.910657E-013
 0.910662E-013
 0.910667E-013
 0.910671E-013
 0.910676E-013
 0.910681E-013
 0.910687E-013
 0.910692E-013
 0.910697E-013
 0.910703E-013
 0.910709E-013
 0.910714E-013
 0.910720E-013
 0.910726E-013
 0.910732E-013
 0.910738E-013
 0.910745E-013
 0.910751E-013
 0.910757E-013
 0.910763E-013
 0.910770E-013
 0.910776E-013
 0.910783E-013
 0.910790E-013
 0.910796E-013
 0.910803E-013
 0.910810E-013
 0.910816E-013
 0.910823E-013
 0.910830E-013
 0.910837E-013
 0.910844E-013
 0.910851E-013
 0.910857E-013
 0.910864E-013
 0.910872E-013
 0.910876E-013
 0.910896E-013
 0.910846E-013
 0.911079E-013
 0.910307E-013
 0.912583E-013
 0.907171E-013
 0.917465E-013
 0.918350E-013
 0.906664E-013
 0.912857E-013
 0.910256E-013
 0.911154E-013
 0.910896E-013
 0.910962E-013
 0.910949E-013
 0.910954E-013
 0.910955E-013
 0.910956E-013
 0.910958E-013
 0.910960E-013
 0.910961E-013
 0.910963E-013
 0.910964E-013
 0.910966E-013
 0.910967E-013
 0.910969E-013
 0.910970E-013
 0.910972E-013
 0.910973E-013
 0.910975E-013
 0.910976E-013
 0.910978E-013
 0.910979E-013
 0.910981E-013
 0.910982E-013
 0.910983E-013
 0.910985E-013
 0.910986E-013
 0.910988E-013
 0.910989E-013
 0.910990E-013
 0.910992E-013
 0.910993E-013
 0.910994E-013
 0.910995E-013
 0.910997E-013
 0.910998E-013
 0.910999E-013
 0.911000E-013
 0.911001E-013
 0.911002E-013
 0.911003E-013
 0.911004E-013
 0.911005E-013
 0.911006E-013
 0.911007E-013
 0.911008E-013
 0.911009E-013
 0.911009E-013
 0.911010E-013
 0.911011E-013
 0.911011E-013
 0.911012E-013
 0.911012E-013
 0.911013E-013
 0.911013E-013
 0.911013E-013
 0.911013E-013
 0.911014E-013
 0.911014E-013
 0.911014E-013
 0.911014E-013
 0.911014E-013
 0.911014E-013
 0.911013E-013
 0.911013E-013
 0.911013E-013
 0.911013E-013
 0.911012E-013
 0.911012E-013
 0.911011E-013
 0.911011E-013
 0.911010E-013
 0.911009E-013
 0.911009E-013
 0.911008E-013
 0.911007E-013
 0.911006E-013
 0.911005E-013
 0.911004E-013
 0.911003E-013
 0.911002E-013
 0.911001E-013
 0.911000E-013
 0.910999E-013
 0.910998E-013
 0.910997E-013
 0.910995E-013
 0.910994E-013
 0.910993E-013
 0.910992E-013
 0.910990E-013
 0.910989E-013
 0.910988E-013
 0.910986E-013
 0.910985E-013
 0.910983E-013
 0.910982E-013
 0.910981E-013
 0.910979E-013
 0.910978E-013
 0.910976E-013
 0.910975E-013
 0.910973E-013
 0.910972E-013
 0.910970E-013
 0.910969E-013
 0.910967E-013
 0.910966E-013
 0.910964E-013
 0.910963E-013
 0.910961E-013
 0.910960E-013
 0.910958E-013
 0.910956E-013
 0.910955E-013
 0.910954E-013
 0.910949E-013
 0.910962E-013
 0.910896E-013
 0.911154E-013
 0.910256E-013
 0.912857E-013
 0.906664E-013
 0.918350E-013
 0.919216E-013
 0.906132E-013
 0.913093E-013
 0.910158E-013
 0.911171E-013
 0.910876E-013
 0.910949E-013
 0.910933E-013
 0.910936E-013
 0.910935E-013
 0.910935E-013
 0.910934E-013
 0.910934E-013
 0.910934E-013
 0.910934E-013
 0.910933E-013
 0.910933E-013
 0.910933E-013
 0.910932E-013
 0.910932E-013
 0.910932E-013
 0.910932E-013
 0.910931E-013
 0.910931E-013
 0.910931E-013
 0.910930E-013
 0.910930E-013
 0.910930E-013
 0.910930E-013
 0.910929E-013
 0.910929E-013
 0.910929E-013
 0.910929E-013
 0.910928E-013
 0.910928E-013
 0.910928E-013
 0.910928E-013
 0.910928E-013
 0.910927E-013
 0.910927E-013
 0.910927E-013
 0.910927E-013
 0.910927E-013
 0.910927E-013
 0.910926E-013
 0.910926E-013
 0.910926E-013
 0.910926E-013
 0.910926E-013
 0.910926E-013
 0.910926E-013
 0.910926E-013
 0.910926E-013
 0.910926E-013
 0.910926E-013
 0.910925E-013
 0.910925E-013
 0.910925E-013
 0.910925E-013
 0.910925E-013
 0.910925E-013
 0.910925E-013
 0.910925E-013
 0.910925E-013
 0.910925E-013
 0.910925E-013
 0.910925E-013
 0.910925E-013
 0.910925E-013
 0.910925E-013
 0.910925E-013
 0.910925E-013
 0.910925E-013
 0.910926E-013
 0.910926E-013
 0.910926E-013
 0.910926E-013
 0.910926E-013
 0.910926E-013
 0.910926E-013
 0.910926E-013
 0.910926E-013
 0.910926E-013
 0.910926E-013
 0.910927E-013
 0.910927E-013
 0.910927E-013
 0.910927E-013
 0.910927E-013
 0.910927E-013
 0.910928E-013
 0.910928E-013
 0.910928E-013
 0.910928E-013
 0.910928E-013
 0.910929E-013
 0.910929E-013
 0.910929E-013
 0.910929E-013
 0.910930E-013
 0.910930E-013
 0.910930E-013
 0.910930E-013
 0.910931E-013
 0.910931E-013
 0.910931E-013
 0.910932E-013
 0.910932E-013
 0.910932E-013
 0.910932E-013
 0.910933E-013
 0.910933E-013
 0.910933E-013
 0.910934E-013
 0.910934E-013
 0.910934E-013
 0.910934E-013
 0.910935E-013
 0.910935E-013
 0.910936E-013
 0.910933E-013
 0.910949E-013
 0.910876E-013
 0.911171E-013
 0.910159E-013
 0.913093E-013
 0.906132E-013
 0.919216E-013
 0.920082E-013
 0.905608E-013
 0.913336E-013
 0.910071E-013
 0.911200E-013
 0.910872E-013
 0.910954E-013
 0.910936E-013
 0.910939E-013
 0.910939E-013
 0.910939E-013
 0.910939E-013
 0.910939E-013
 0.910939E-013
 0.910939E-013
 0.910939E-013
 0.910939E-013
 0.910939E-013
 0.910939E-013
 0.910940E-013
 0.910940E-013
 0.910940E-013
 0.910940E-013
 0.910940E-013
 0.910940E-013
 0.910940E-013
 0.910940E-013
 0.910940E-013
 0.910940E-013
 0.910940E-013
 0.910940E-013
 0.910940E-013
 0.910940E-013
 0.910941E-013
 0.910941E-013
 0.910941E-013
 0.910941E-013
 0.910941E-013
 0.910941E-013
 0.910941E-013
 0.910941E-013
 0.910941E-013
 0.910941E-013
 0.910942E-013
 0.910942E-013
 0.910942E-013
 0.910942E-013
 0.910942E-013
 0.910942E-013
 0.910942E-013
 0.910942E-013
 0.910942E-013
 0.910942E-013
 0.910942E-013
 0.910942E-013
 0.910943E-013
 0.910943E-013
 0.910943E-013
 0.910943E-013
 0.910943E-013
 0.910943E-013
 0.910943E-013
 0.910943E-013
 0.910943E-013
 0.910943E-013
 0.910943E-013
 0.910943E-013
 0.910943E-013
 0.910943E-013
 0.910943E-013
 0.910943E-013
 0.910943E-013
 0.910943E-013
 0.910942E-013
 0.910942E-013
 0.910942E-013
 0.910942E-013
 0.910942E-013
 0.910942E-013
 0.910942E-013
 0.910942E-013
 0.910942E-013
 0.910942E-013
 0.910942E-013
 0.910942E-013
 0.910941E-013
 0.910941E-013
 0.910941E-013
 0.910941E-013
 0.910941E-013
 0.910941E-013
 0.910941E-013
 0.910941E-013
 0.910941E-013
 0.910941E-013
 0.910941E-013
 0.910940E-013
 0.910940E-013
 0.910940E-013
 0.910940E-013
 0.910940E-013
 0.910940E-013
 0.910940E-013
 0.910940E-013
 0.910940E-013
 0.910940E-013
 0.910940E-013
 0.910940E-013
 0.910940E-013
 0.910939E-013
 0.910939E-013
 0.910939E-013
 0.910939E-013
 0.910939E-013
 0.910939E-013
 0.910939E-013
 0.910939E-013
 0.910939E-013
 0.910939E-013
 0.910939E-013
 0.910936E-013
 0.910954E-013
 0.910872E-013
 0.911200E-013
 0.910071E-013
 0.913336E-013
 0.905608E-013
 0.920082E-013
 0.920946E-013
 0.905084E-013
 0.913577E-013
 0.909982E-013
 0.911226E-013
 0.910864E-013
 0.910955E-013
 0.910935E-013
 0.910939E-013
 0.910938E-013
 0.910938E-013
 0.910938E-013
 0.910938E-013
 0.910938E-013
 0.910938E-013
 0.910938E-013
 0.910938E-013
 0.910938E-013
 0.910938E-013
 0.910938E-013
 0.910938E-013
 0.910938E-013
 0.910938E-013
 0.910938E-013
 0.910938E-013
 0.910938E-013
 0.910938E-013
 0.910938E-013
 0.910938E-013
 0.910938E-013
 0.910938E-013
 0.910938E-013
 0.910939E-013
 0.910939E-013
 0.910939E-013
 0.910939E-013
 0.910939E-013
 0.910939E-013
 0.910939E-013
 0.910939E-013
 0.910939E-013
 0.910939E-013
 0.910939E-013
 0.910939E-013
 0.910939E-013
 0.910939E-013
 0.910939E-013
 0.910939E-013
 0.910939E-013
 0.910940E-013
 0.910940E-013
 0.910940E-013
 0.910940E-013
 0.910940E-013
 0.910940E-013
 0.910940E-013
 0.910940E-013
 0.910940E-013
 0.910940E-013
 0.910940E-013
 0.910940E-013
 0.910940E-013
 0.910940E-013
 0.910940E-013
 0.910940E-013
 0.910940E-013
 0.910940E-013
 0.910940E-013
 0.910940E-013
 0.910940E-013
 0.910940E-013
 0.910940E-013
 0.910940E-013
 0.910940E-013
 0.910940E-013
 0.910940E-013
 0.910940E-013
 0.910940E-013
 0.910940E-013
 0.910939E-013
 0.910939E-013
 0.910939E-013
 0.910939E-013
 0.910939E-013
 0.910939E-013
 0.910939E-013
 0.910939E-013
 0.910939E-013
 0.910939E-013
 0.910939E-013
 0.910939E-013
 0.910939E-013
 0.910939E-013
 0.910939E-013
 0.910939E-013
 0.910939E-013
 0.910938E-013
 0.910938E-013
 0.910938E-013
 0.910938E-013
 0.910938E-013
 0.910938E-013
 0.910938E-013
 0.910938E-013
 0.910938E-013
 0.910938E-013
 0.910938E-013
 0.910938E-013
 0.910938E-013
 0.910938E-013
 0.910938E-013
 0.910938E-013
 0.910938E-013
 0.910938E-013
 0.910938E-013
 0.910938E-013
 0.910938E-013
 0.910938E-013
 0.910938E-013
 0.910939E-013
 0.910935E-013
 0.910955E-013
 0.910864E-013
 0.911226E-013
 0.909982E-013
 0.913577E-013
 0.905084E-013
 0.920946E-013
 0.921806E-013
 0.904561E-013
 0.913818E-013
 0.909894E-013
 0.911253E-013
 0.910857E-013
 0.910956E-013
 0.910935E-013
 0.910939E-013
 0.910938E-013
 0.910938E-013
 0.910938E-013
 0.910938E-013
 0.910938E-013
 0.910938E-013
 0.910938E-013
 0.910938E-013
 0.910938E-013
 0.910938E-013
 0.910938E-013
 0.910938E-013
 0.910939E-013
 0.910939E-013
 0.910939E-013
 0.910939E-013
 0.910939E-013
 0.910939E-013
 0.910939E-013
 0.910939E-013
 0.910939E-013
 0.910939E-013
 0.910939E-013
 0.910939E-013
 0.910939E-013
 0.910939E-013
 0.910939E-013
 0.910939E-013
 0.910939E-013
 0.910939E-013
 0.910939E-013
 0.910939E-013
 0.910940E-013
 0.910940E-013
 0.910940E-013
 0.910940E-013
 0.910940E-013
 0.910940E-013
 0.910940E-013
 0.910940E-013