# vtk DataFile Version 3.0
Solution data
ASCII
DATASET STRUCTURED_GRID
DIMENSIONS 128 128 1
POINTS 16384  double
      0.000004      0.000004      0.000000
      0.000012      0.000004      0.000000
      0.000020      0.000004      0.000000
      0.000027      0.000004      0.000000
      0.000035      0.000004      0.000000
      0.000043      0.000004      0.000000
      0.000051      0.000004      0.000000
      0.000059      0.000004      0.000000
      0.000066      0.000004      0.000000
      0.000074      0.000004      0.000000
      0.000082      0.000004      0.000000
      0.000090      0.000004      0.000000
      0.000098      0.000004      0.000000
      0.000105      0.000004      0.000000
      0.000113      0.000004      0.000000
      0.000121      0.000004      0.000000
      0.000129      0.000004      0.000000
      0.000137      0.000004      0.000000
      0.000145      0.000004      0.000000
      0.000152      0.000004      0.000000
      0.000160      0.000004      0.000000
      0.000168      0.000004      0.000000
      0.000176      0.000004      0.000000
      0.000184      0.000004      0.000000
      0.000191      0.000004      0.000000
      0.000199      0.000004      0.000000
      0.000207      0.000004      0.000000
      0.000215      0.000004      0.000000
      0.000223      0.000004      0.000000
      0.000230      0.000004      0.000000
      0.000238      0.000004      0.000000
      0.000246      0.000004      0.000000
      0.000254      0.000004      0.000000
      0.000262      0.000004      0.000000
      0.000270      0.000004      0.000000
      0.000277      0.000004      0.000000
      0.000285      0.000004      0.000000
      0.000293      0.000004      0.000000
      0.000301      0.000004      0.000000
      0.000309      0.000004      0.000000
      0.000316      0.000004      0.000000
      0.000324      0.000004      0.000000
      0.000332      0.000004      0.000000
      0.000340      0.000004      0.000000
      0.000348      0.000004      0.000000
      0.000355      0.000004      0.000000
      0.000363      0.000004      0.000000
      0.000371      0.000004      0.000000
      0.000379      0.000004      0.000000
      0.000387      0.000004      0.000000
      0.000395      0.000004      0.000000
      0.000402      0.000004      0.000000
      0.000410      0.000004      0.000000
      0.000418      0.000004      0.000000
      0.000426      0.000004      0.000000
      0.000434      0.000004      0.000000
      0.000441      0.000004      0.000000
      0.000449      0.000004      0.000000
      0.000457      0.000004      0.000000
      0.000465      0.000004      0.000000
      0.000473      0.000004      0.000000
      0.000480      0.000004      0.000000
      0.000488      0.000004      0.000000
      0.000496      0.000004      0.000000
      0.000504      0.000004      0.000000
      0.000512      0.000004      0.000000
      0.000520      0.000004      0.000000
      0.000527      0.000004      0.000000
      0.000535      0.000004      0.000000
      0.000543      0.000004      0.000000
      0.000551      0.000004      0.000000
      0.000559      0.000004      0.000000
      0.000566      0.000004      0.000000
      0.000574      0.000004      0.000000
      0.000582      0.000004      0.000000
      0.000590      0.000004      0.000000
      0.000598      0.000004      0.000000
      0.000605      0.000004      0.000000
      0.000613      0.000004      0.000000
      0.000621      0.000004      0.000000
      0.000629      0.000004      0.000000
      0.000637      0.000004      0.000000
      0.000645      0.000004      0.000000
      0.000652      0.000004      0.000000
      0.000660      0.000004      0.000000
      0.000668      0.000004      0.000000
      0.000676      0.000004      0.000000
      0.000684      0.000004      0.000000
      0.000691      0.000004      0.000000
      0.000699      0.000004      0.000000
      0.000707      0.000004      0.000000
      0.000715      0.000004      0.000000
      0.000723      0.000004      0.000000
      0.000730      0.000004      0.000000
      0.000738      0.000004      0.000000
      0.000746      0.000004      0.000000
      0.000754      0.000004      0.000000
      0.000762      0.000004      0.000000
      0.000770      0.000004      0.000000
      0.000777      0.000004      0.000000
      0.000785      0.000004      0.000000
      0.000793      0.000004      0.000000
      0.000801      0.000004      0.000000
      0.000809      0.000004      0.000000
      0.000816      0.000004      0.000000
      0.000824      0.000004      0.000000
      0.000832      0.000004      0.000000
      0.000840      0.000004      0.000000
      0.000848      0.000004      0.000000
      0.000855      0.000004      0.000000
      0.000863      0.000004      0.000000
      0.000871      0.000004      0.000000
      0.000879      0.000004      0.000000
      0.000887      0.000004      0.000000
      0.000895      0.000004      0.000000
      0.000902      0.000004      0.000000
      0.000910      0.000004      0.000000
      0.000918      0.000004      0.000000
      0.000926      0.000004      0.000000
      0.000934      0.000004      0.000000
      0.000941      0.000004      0.000000
      0.000949      0.000004      0.000000
      0.000957      0.000004      0.000000
      0.000965      0.000004      0.000000
      0.000973      0.000004      0.000000
      0.000980      0.000004      0.000000
      0.000988      0.000004      0.000000
      0.000996      0.000004      0.000000
      0.000004      0.000012      0.000000
      0.000012      0.000012      0.000000
      0.000020      0.000012      0.000000
      0.000027      0.000012      0.000000
      0.000035      0.000012      0.000000
      0.000043      0.000012      0.000000
      0.000051      0.000012      0.000000
      0.000059      0.000012      0.000000
      0.000066      0.000012      0.000000
      0.000074      0.000012      0.000000
      0.000082      0.000012      0.000000
      0.000090      0.000012      0.000000
      0.000098      0.000012      0.000000
      0.000105      0.000012      0.000000
      0.000113      0.000012      0.000000
      0.000121      0.000012      0.000000
      0.000129      0.000012      0.000000
      0.000137      0.000012      0.000000
      0.000145      0.000012      0.000000
      0.000152      0.000012      0.000000
      0.000160      0.000012      0.000000
      0.000168      0.000012      0.000000
      0.000176      0.000012      0.000000
      0.000184      0.000012      0.000000
      0.000191      0.000012      0.000000
      0.000199      0.000012      0.000000
      0.000207      0.000012      0.000000
      0.000215      0.000012      0.000000
      0.000223      0.000012      0.000000
      0.000230      0.000012      0.000000
      0.000238      0.000012      0.000000
      0.000246      0.000012      0.000000
      0.000254      0.000012      0.000000
      0.000262      0.000012      0.000000
      0.000270      0.000012      0.000000
      0.000277      0.000012      0.000000
      0.000285      0.000012      0.000000
      0.000293      0.000012      0.000000
      0.000301      0.000012      0.000000
      0.000309      0.000012      0.000000
      0.000316      0.000012      0.000000
      0.000324      0.000012      0.000000
      0.000332      0.000012      0.000000
      0.000340      0.000012      0.000000
      0.000348      0.000012      0.000000
      0.000355      0.000012      0.000000
      0.000363      0.000012      0.000000
      0.000371      0.000012      0.000000
      0.000379      0.000012      0.000000
      0.000387      0.000012      0.000000
      0.000395      0.000012      0.000000
      0.000402      0.000012      0.000000
      0.000410      0.000012      0.000000
      0.000418      0.000012      0.000000
      0.000426      0.000012      0.000000
      0.000434      0.000012      0.000000
      0.000441      0.000012      0.000000
      0.000449      0.000012      0.000000
      0.000457      0.000012      0.000000
      0.000465      0.000012      0.000000
      0.000473      0.000012      0.000000
      0.000480      0.000012      0.000000
      0.000488      0.000012      0.000000
      0.000496      0.000012      0.000000
      0.000504      0.000012      0.000000
      0.000512      0.000012      0.000000
      0.000520      0.000012      0.000000
      0.000527      0.000012      0.000000
      0.000535      0.000012      0.000000
      0.000543      0.000012      0.000000
      0.000551      0.000012      0.000000
      0.000559      0.000012      0.000000
      0.000566      0.000012      0.000000
      0.000574      0.000012      0.000000
      0.000582      0.000012      0.000000
      0.000590      0.000012      0.000000
      0.000598      0.000012      0.000000
      0.000605      0.000012      0.000000
      0.000613      0.000012      0.000000
      0.000621      0.000012      0.000000
      0.000629      0.000012      0.000000
      0.000637      0.000012      0.000000
      0.000645      0.000012      0.000000
      0.000652      0.000012      0.000000
      0.000660      0.000012      0.000000
      0.000668      0.000012      0.000000
      0.000676      0.000012      0.000000
      0.000684      0.000012      0.000000
      0.000691      0.000012      0.000000
      0.000699      0.000012      0.000000
      0.000707      0.000012      0.000000
      0.000715      0.000012      0.000000
      0.000723      0.000012      0.000000
      0.000730      0.000012      0.000000
      0.000738      0.000012      0.000000
      0.000746      0.000012      0.000000
      0.000754      0.000012      0.000000
      0.000762      0.000012      0.000000
      0.000770      0.000012      0.000000
      0.000777      0.000012      0.000000
      0.000785      0.000012      0.000000
[...]
POINT_DATA 16384
SCALARS rhoe double
LOOKUP_TABLE default
 0.916102E-013
 0.912698E-013
 0.915347E-013
 0.915703E-013
 0.916782E-013
 0.917664E-013
 0.918589E-013
 0.919502E-013
 0.920414E-013
 0.921323E-013
 0.922230E-013
 0.923133E-013
 0.924034E-013
 0.924931E-013
 0.925825E-013
 0.926715E-013
 0.927602E-013
 0.928484E-013
 0.929362E-013
 0.930236E-013
 0.931104E-013
 0.931967E-013
 0.932824E-013
 0.933675E-013
 0.934519E-013
 0.935357E-013
 0.936186E-013
 0.937007E-013
 0.937820E-013
 0.938623E-013
 0.939416E-013
 0.940199E-013
 0.940970E-013
 0.941728E-013
 0.942474E-013
 0.943207E-013
 0.943925E-013
 0.944627E-013
 0.945313E-013
 0.945983E-013
 0.946635E-013
 0.947267E-013
 0.947881E-013
 0.948474E-013
 0.949045E-013
 0.949595E-013
 0.950121E-013
 0.950624E-013
 0.951102E-013
 0.951554E-013
 0.951980E-013
 0.952379E-013
 0.952750E-013
 0.953093E-013
 0.953407E-013
 0.953691E-013
 0.953945E-013
 0.954169E-013
 0.954361E-013
 0.954522E-013
 0.954651E-013
 0.954748E-013
 0.954813E-013
 0.954845E-013
 0.954845E-013
 0.954813E-013
 0.954748E-013
 0.954651E-013
 0.954522E-013
 0.954361E-013
 0.954169E-013
 0.953945E-013
 0.953691E-013
 0.953407E-013
 0.953093E-013
 0.952750E-013
 0.952379E-013
 0.951980E-013
 0.951554E-013
 0.951102E-013
 0.950624E-013
 0.950121E-013
 0.949595E-013
 0.949045E-013
 0.948474E-013
 0.947881E-013
 0.947268E-013
 0.946635E-013
 0.945983E-013
 0.945314E-013
 0.944627E-013
 0.943925E-013
 0.943207E-013
 0.942475E-013
 0.941729E-013
 0.940970E-013
 0.940199E-013
 0.939416E-013
 0.938623E-013
 0.937820E-013
 0.937008E-013
 0.936186E-013
 0.935357E-013
 0.934519E-013
 0.933675E-013
 0.932824E-013
 0.931967E-013
 0.931104E-013
 0.930236E-013
 0.929362E-013
 0.928484E-013
 0.927602E-013
 0.926715E-013
 0.925825E-013
 0.924931E-013
 0.924034E-013
 0.923133E-013
 0.922230E-013
 0.921323E-013
 0.920414E-013
 0.919502E-013
 0.918589E-013
 0.917664E-013
 0.916782E-013
 0.915703E-013
 0.915347E-013
 0.912698E-013
 0.916102E-013
 0.912698E-013
 0.908016E-013
 0.909479E-013
 0.908235E-013
 0.907941E-013
 0.907375E-013
 0.906877E-013
 0.906366E-013
 0.905859E-013
 0.905354E-013
 0.904849E-013
 0.904347E-013
 0.903846E-013
 0.903347E-013
 0.902850E-013
 0.902355E-013
 0.901863E-013
 0.901372E-013
 0.900884E-013
 0.900398E-013
 0.899916E-013
 0.899436E-013
 0.898959E-013
 0.898486E-013
 0.898017E-013
 0.897551E-013
 0.897090E-013
 0.896633E-013
 0.896181E-013
 0.895734E-013
 0.895293E-013
 0.894858E-013
 0.894429E-013
 0.894007E-013
 0.893592E-013
 0.893184E-013
 0.892785E-013
 0.892394E-013
 0.892012E-013
 0.891639E-013
 0.891277E-013
 0.890924E-013
 0.890583E-013
 0.890253E-013
 0.889934E-013
 0.889628E-013
 0.889335E-013
 0.889055E-013
 0.888789E-013
 0.888537E-013
 0.888300E-013
 0.888078E-013
 0.887871E-013
 0.887680E-013
 0.887505E-013
 0.887347E-013
 0.887205E-013
 0.887081E-013
 0.886974E-013
 0.886884E-013
 0.886812E-013
 0.886758E-013
 0.886722E-013
 0.886704E-013
 0.886704E-013
 0.886722E-013
 0.886758E-013
 0.886812E-013
 0.886884E-013
 0.886974E-013
 0.887081E-013
 0.887205E-013
 0.887347E-013
 0.887505E-013
 0.887680E-013
 0.887871E-013
 0.888078E-013
 0.888300E-013
 0.888538E-013
 0.888789E-013
 0.889056E-013
 0.889335E-013
 0.889629E-013
 0.889935E-013
 0.890253E-013
 0.890583E-013
 0.890924E-013
 0.891277E-013
 0.891640E-013
 0.892012E-013
 0.892394E-013
 0.892785E-013
 0.893185E-013
 0.893592E-013
 0.894007E-013
 0.894429E-013
 0.894858E-013
 0.895293E-013
 0.895735E-013
 0.896181E-013
 0.896633E-013
 0.897090E-013
 0.897551E-013
 0.898017E-013
 0.898486E-013
 0.898960E-013
 0.899436E-013
 0.899916E-013
 0.900399E-013
 0.900884E-013
 0.901372E-013
 0.901863E-013
 0.902356E-013
 0.902851E-013
 0.903348E-013
 0.903846E-013
 0.904347E-013
 0.904850E-013
 0.905354E-013
 0.905859E-013
 0.906366E-013
 0.906877E-013
 0.907375E-013
 0.907941E-013
 0.908235E-013
 0.909479E-013
 0.908017E-013
 0.912698E-013
 0.915347E-013
 0.909479E-013
 0.912517E-013
 0.911690E-013
 0.912214E-013
 0.912346E-013
 0.912573E-013
 0.912780E-013
 0.912990E-013
 0.913198E-013
 0.913406E-013
 0.913613E-013
 0.913820E-013
 0.914026E-013
 0.914230E-013
 0.914434E-013
 0.914638E-013
 0.914840E-013
 0.915041E-013
 0.915241E-013
 0.915440E-013
 0.915638E-013
 0.915834E-013
 0.916029E-013
 0.916222E-013
 0.916414E-013
 0.916604E-013
 0.916792E-013
 0.916978E-013
 0.917162E-013
 0.917344E-013
 0.917523E-013
 0.917699E-013
 0.917873E-013
 0.918044E-013
 0.918212E-013
 0.918376E-013
 0.918537E-013
 0.918694E-013
 0.918848E-013
 0.918997E-013
 0.919142E-013
 0.919283E-013
 0.919419E-013
 0.919550E-013
 0.919675E-013
 0.919796E-013
 0.919911E-013
 0.920021E-013
 0.920124E-013
 0.920222E-013
 0.920314E-013
 0.920399E-013
 0.920477E-013
 0.920549E-013
 0.920614E-013
 0.920673E-013
 0.920724E-013
 0.920768E-013
 0.920805E-013
 0.920834E-013
 0.920857E-013
 0.920871E-013
 0.920879E-013
 0.920879E-013
 0.920871E-013
 0.920857E-013
 0.920834E-013
 0.920805E-013
 0.920768E-013
 0.920724E-013
 0.920673E-013
 0.920614E-013
 0.920549E-013
 0.920477E-013
 0.920399E-013
 0.920313E-013
 0.920222E-013
 0.920124E-013
 0.920021E-013
 0.919911E-013
 0.919796E-013
 0.919675E-013
 0.919549E-013
 0.919418E-013
 0.919283E-013
 0.919142E-013
 0.918997E-013
 0.918848E-013
 0.918694E-013
 0.918537E-013
 0.918376E-013
 0.918212E-013
 0.918044E-013
 0.917873E-013
 0.917699E-013
 0.917523E-013
 0.917343E-013
 0.917162E-013
 0.916978E-013
 0.916792E-013
 0.916604E-013
 0.916414E-013
 0.916222E-013
 0.916029E-013
 0.915834E-013
 0.915637E-013
 0.915440E-013
 0.915241E-013
 0.915041E-013
 0.914840E-013
 0.914637E-013
 0.914434E-013
 0.914230E-013
 0.914025E-013
 0.913820E-013
 0.913613E-013
 0.913406E-013
 0.913198E-013
 0.912990E-013
 0.912780E-013
 0.912573E-013
 0.912346E-013
 0.912214E-013
 0.911690E-013
 0.912517E-013
 0.909479E-013
 0.915347E-013
 0.915703E-013
 0.908235E-013
 0.911690E-013
 0.910307E-013
 0.910637E-013
 0.910467E-013
 0.910421E-013
 0.910348E-013
 0.910281E-013
 0.910213E-013
 0.910146E-013
 0.910079E-013
 0.910012E-013
 0.909945E-013
 0.909878E-013
 0.909812E-013
 0.909746E-013
 0.909680E-013
 0.909615E-013
 0.909550E-013
 0.909486E-013
 0.909421E-013
 0.909358E-013
 0.909294E-013
 0.909232E-013
 0.909169E-013
 0.909108E-013
 0.909047E-013
 0.908986E-013
 0.908927E-013
 0.908868E-013
 0.908809E-013
 0.908752E-013
 0.908696E-013
 0.908640E-013
 0.908586E-013
 0.908533E-013
 0.908480E-013
 0.908429E-013
 0.908380E-013
 0.908331E-013
 0.908284E-013
 0.908238E-013
 0.908194E-013
 0.908152E-013
 0.908111E-013
 0.908072E-013
 0.908035E-013
 0.907999E-013
 0.907965E-013
 0.907934E-013
 0.907904E-013
 0.907877E-013
 0.907851E-013
 0.907828E-013
 0.907807E-013
 0.907788E-013
 0.907771E-013
 0.907757E-013
 0.907745E-013
 0.907735E-013
 0.907728E-013
 0.907723E-013
 0.907721E-013
 0.907721E-013
 0.907723E-013
 0.907728E-013
 0.907735E-013
 0.907745E-013
 0.907757E-013
 0.907771E-013
 0.907788E-013
 0.907807E-013
 0.907828E-013
 0.907851E-013
 0.907877E-013
 0.907904E-013
 0.907934E-013
 0.907966E-013
 0.907999E-013
 0.908035E-013
 0.908072E-013
 0.908111E-013
 0.908152E-013
 0.908194E-013
 0.908239E-013
 0.908284E-013
 0.908331E-013
 0.908380E-013
 0.908429E-013
 0.908480E-013
 0.908533E-013
 0.908586E-013
 0.908640E-013
 0.908696E-013
 0.908752E-013
 0.908810E-013
 0.908868E-013
 0.908927E-013
 0.908986E-013
 0.909047E-013
 0.909108E-013
 0.909169E-013
 0.909232E-013
 0.909294E-013
 0.909358E-013
 0.909421E-013
 0.909486E-013
 0.909550E-013
 0.909615E-013
 0.909680E-013
 0.909746E-013
 0.909812E-013
 0.909878E-013
 0.909945E-013
 0.910012E-013
 0.910079E-013
 0.910146E-013
 0.910213E-013
 0.910281E-013
 0.910348E-013
 0.910421E-013
 0.910467E-013
 0.910637E-013
 0.910307E-013
 0.911690E-013
 0.908235E-013
 0.915703E-013
 0.916782E-013
 0.907941E-013
 0.912214E-013
 0.910637E-013
 0.911140E-013
 0.911035E-013
 0.911080E-013
 0.911093E-013
 0.911112E-013
 0.911130E-013
 0.911148E-013
 0.911166E-013
 0.911184E-013
 0.911202E-013
 0.911220E-013
 0.911237E-013
 0.911255E-013
 0.911272E-013
 0.911290E-013
 0.911307E-013
 0.911324E-013
 0.911342E-013
 0.911359E-013
 0.911375E-013
 0.911392E-013
 0.911409E-013
 0.911425E-013
 0.911442E-013
 0.911458E-013
 0.911474E-013
 0.911489E-013
 0.911505E-013
 0.911520E-013
 0.911535E-013
 0.911550E-013
 0.911565E-013
 0.911579E-013
 0.911593E-013
 0.911606E-013
 0.911620E-013
 0.911633E-013
 0.911645E-013
 0.911658E-013
 0.911669E-013
 0.911681E-013
 0.911692E-013
 0.911702E-013
 0.911712E-013
 0.911722E-013
 0.911731E-013
 0.911739E-013
 0.911747E-013
 0.911754E-013
 0.911761E-013
 0.911768E-013
 0.911773E-013
 0.911778E-013
 0.911783E-013
 0.911787E-013
 0.911790E-013
 0.911792E-013
 0.911794E-013
 0.911796E-013
 0.911796E-013
 0.911796E-013
 0.911796E-013
 0.911794E-013
 0.911792E-013
 0.911790E-013
 0.911787E-013
 0.911783E-013
 0.911778E-013
 0.911773E-013
 0.911768E-013
 0.911761E-013
 0.911754E-013
 0.911747E-013
 0.911739E-013
 0.911731E-013
 0.911722E-013
 0.911712E-013
 0.911702E-013
 0.911692E-013
 0.911681E-013
 0.911669E-013
 0.911658E-013
 0.911645E-013
 0.911633E-013
 0.911620E-013
 0.911606E-013
 0.911593E-013
 0.911579E-013
 0.911565E-013
 0.911550E-013
 0.911535E-013
 0.911520E-013
 0.911505E-013
 0.911489E-013
 0.911474E-013
 0.911458E-013
 0.911442E-013
 0.911425E-013
 0.911409E-013
 0.911392E-013
 0.911375E-013
 0.911359E-013
 0.911342E-013
 0.911324E-013
 0.911307E-013
 0.911290E-013
 0.911272E-013
 0.911255E-013
 0.911237E-013
 0.911220E-013
 0.911202E-013
 0.911184E-013
 0.911166E-013
 0.911148E-013
 0.911130E-013
 0.911112E-013
 0.911093E-013
 0.911080E-013
 0.911035E-013
 0.911140E-013
 0.910637E-013
 0.912214E-013
 0.907941E-013
 0.916782E-013
 0.917664E-013
 0.907375E-013
 0.912346E-013
 0.910467E-013
 0.911035E-013
 0.910885E-013
 0.910913E-013
 0.910903E-013
 0.910899E-013
 0.910895E-013
 0.910891E-013
 0.910887E-013
 0.910883E-013
 0.910879E-013
 0.910875E-013
 0.910871E-013
 0.910867E-013
 0.910863E-013
 0.910859E-013
 0.910855E-013
 0.910851E-013
 0.910848E-013
 0.910844E-013
 0.910840E-013
 0.910836E-013
 0.910832E-013
 0.910829E-013
 0.910825E-013
 0.910822E-013
 0.910818E-013
 0.910814E-013
 0.910811E-013
 0.910808E-013
 0.910804E-013
 0.910801E-013
 0.910798E-013
 0.910794E-013
 0.910791E-013
 0.910788E-013
 0.910785E-013
 0.910782E-013
 0.910780E-013
 0.910777E-013
 0.910774E-013
 0.910772E-013
 0.910769E-013
 0.910767E-013
 0.910765E-013
 0.910763E-013
 0.910761E-013
 0.910759E-013
 0.910757E-013
 0.910756E-013
 0.910754E-013
 0.910753E-013
 0.910752E-013
 0.910750E-013
 0.910749E-013
 0.910749E-013
 0.910748E-013
 0.910747E-013
 0.910747E-013
 0.910747E-013
 0.910747E-013
 0.910747E-013
 0.910747E-013
 0.910747E-013
 0.910747E-013
 0.910748E-013
 0.910749E-013
 0.910749E-013
 0.910750E-013
 0.910752E-013
 0.910753E-013
 0.910754E-013
 0.910756E-013
 0.910757E-013
 0.910759E-013
 0.910761E-013
 0.910763E-013
 0.910765E-013
 0.910767E-013
 0.910769E-013
 0.910772E-013
 0.910774E-013
 0.910777E-013
 0.910780E-013
 0.910782E-013
 0.910785E-013
 0.910788E-013
 0.910791E-013
 0.910794E-013
 0.910798E-013
 0.910801E-013
 0.910804E-013
 0.910808E-013
 0.910811E-013
 0.910814E-013
 0.910818E-013
 0.910822E-013
 0.910825E-013
 0.910829E-013
 0.910832E-013
 0.910836E-013
 0.910840E-013
 0.910844E-013
 0.910848E-013
 0.910851E-013
 0.910855E-013
 0.910859E-013
 0.910863E-013
 0.910867E-013
 0.910871E-013
 0.910875E-013
 0.910879E-013
 0.910883E-013
 0.910887E-013
 0.910891E-013
 0.910895E-013
 0.910899E-013
 0.910903E-013
 0.910913E-013
 0.910885E-013
 0.911035E-013
 0.910467E-013
 0.912346E-013
 0.907375E-013
 0.917664E-013
 0.918589E-013
 0.906877E-013
 0.912573E-013
 0.910421E-013
 0.911080E-013
 0.910913E-013
 0.910950E-013
 0.910944E-013
 0.910946E-013
 0.910947E-013
 0.910948E-013
 0.910948E-013
 0.910949E-013
 0.910950E-013
 0.910951E-013
 0.910951E-013
 0.910952E-013
 0.910953E-013
 0.910954E-013
 0.910955E-013
 0.910955E-013
 0.910956E-013
 0.910957E-013
 0.910958E-013
 0.910958E-013
 0.910959E-013
 0.910960E-013
 0.910961E-013
 0.910961E-013
 0.910962E-013
 0.910963E-013
 0.910964E-013
 0.910964E-013
 0.910965E-013
 0.910966E-013
 0.910966E-013
 0.910967E-013
 0.910968E-013
 0.910968E-013
 0.910969E-013
 0.910970E-013
 0.910970E-013
 0.910971E-013
 0.910971E-013
 0.910972E-013
 0.910972E-013
 0.910973E-013
 0.910973E-013
 0.910974E-013
 0.910974E-013
 0.910975E-013
 0.910975E-013
 0.910975E-013
 0.910976E-013
 0.910976E-013
 0.910976E-013
 0.910977E-013
 0.910977E-013
 0.910977E-013
 0.910977E-013
 0.910977E-013
 0.910977E-013
 0.910978E-013
 0.910978E-013
 0.910978E-013
 0.910978E-013
 0.910977E-013
 0.910977E-013
 0.910977E-013
 0.910977E-013
 0.910977E-013
 0.910977E-013
 0.910976E-013
 0.910976E-013
 0.910976E-013
 0.910975E-013
 0.910975E-013
 0.910975E-013
 0.910974E-013
 0.910974E-013
 0.910973E-013
 0.910973E-013
 0.910972E-013
 0.910972E-013
 0.910971E-013
 0.910971E-013
 0.910970E-013
 0.910970E-013
 0.910969E-013
 0.910968E-013
 0.910968E-013
 0.910967E-013
 0.910966E-013
 0.910966E-013
 0.910965E-013
 0.910964E-013
 0.910964E-013
 0.910963E-013
 0.910962E-013
 0.910961E-013
 0.910961E-013
 0.910960E-013
 0.910959E-013
 0.910958E-013
 0.910958E-013
 0.910957E-013
 0.910956E-013
 0.910955E-013
 0.910955E-013
 0.910954E-013
 0.910953E-013
 0.910952E-013
 0.910951E-013
 0.910951E-013
 0.910950E-013
 0.910949E-013
 0.910948E-013
 0.910948E-013
 0.910947E-013
 0.910946E-013
 0.910944E-013
 0.910950E-013
 0.910913E-013
 0.911080E-013
 0.910421E-013
 0.912573E-013
 0.906877E-013
 0.918589E-013
 0.919502E-013
 0.906366E-013
 0.912780E-013
 0.910348E-013
 0.911093E-013
 0.910903E-013
 0.910944E-013
 0.910936E-013
 0.910937E-013
 0.910937E-013
 0.910937E-013
 0.910937E-013
 0.910936E-013
 0.910936E-013
 0.910936E-013
 0.910936E-013
 0.910936E-013
 0.910936E-013
 0.910936E-013
 0.910936E-013
 0.910935E-013
 0.910935E-013
 0.910935E-013
 0.910935E-013
 0.910935E-013
 0.910935E-013
 0.910935E-013
 0.910935E-013
 0.910935E-013
 0.910935E-013
 0.910934E-013
 0.910934E-013
 0.910934E-013
 0.910934E-013
 0.910934E-013
 0.910934E-013
 0.910934E-013
 0.910934E-013
 0.910934E-013
 0.910934E-013
 0.910934E-013
 0.910934E-013
 0.910934E-013
 0.910934E-013
 0.910934E-013
 0.910934E-013
 0.910934E-013
 0.910934E-013
 0.910934E-013
 0.910934E-013
 0.910934E-013
 0.910934E-013
 0.910934E-013
 0.910934E-013
 0.910934E-013
 0.910934E-013
 0.910934E-013
 0.910934E-013
 0.910934E-013
 0.910934E-013
 0.910934E-013
 0.910934E-013
 0.910934E-013
 0.910934E-013
 0.910934E-013
 0.910934E-013
 0.910934E-013
 0.910934E-013
 0.910934E-013
 0.910934E-013
 0.910934E-013
 0.910934E-013
 0.910934E-013
 0.910934E-013
 0.910934E-013
 0.910934E-013
 0.910934E-013
 0.910934E-013
 0.910934E-013
 0.910934E-013
 0.910934E-013
 0.910934E-013
 0.910934E-013
 0.910934E-013
 0.910934E-013
 0.910934E-013
 0.910934E-013
 0.910934E-013
 0.910934E-013
 0.910934E-013
 0.910934E-013
 0.910934E-013
 0.910934E-013
 0.910934E-013
 0.910934E-013
 0.910934E-013
 0.910934E-013
 0.910934E-013
 0.910935E-013
 0.910935E-013
 0.910935E-013
 0.910935E-013
 0.910935E-013
 0.910935E-013
 0.910935E-013
 0.910935E-013
 0.910935E-013
 0.910935E-013
 0.910936E-013
 0.910936E-013
 0.910936E-013
 0.910936E-013
 0.910936E-013
 0.910936E-013
 0.910936E-013
 0.910937E-013
 0.910937E-013
 0.910937E-013
 0.910937E-013
 0.910937E-013
 0.910936E-013
 0.910944E-013
 0.910903E-013
 0.911093E-013
 0.910348E-013
 0.912780E-013
 0.906366E-013
 0.919502E-013
 0.920414E-013
 0.905859E-013
 0.912990E-013
 0.910281E-013
 0.911112E-013
 0.910899E-013
 0.910946E-013
 0.910937E-013
 0.910939E-013
 0.910939E-013
 0.910939E-013
 0.910939E-013
 0.910939E-013
 0.910939E-013
 0.910939E-013
 0.910939E-013
 0.910939E-013
 0.910939E-013
 0.910939E-013
 0.910939E-013
 0.910939E-013
 0.910939E-013
 0.910939E-013
 0.910939E-013
 0.910939E-013
 0.910939E-013
 0.910939E-013
 0.910939E-013
 0.910939E-013
 0.910939E-013
 0.910939E-013
 0.910939E-013
 0.910939E-013
 0.910940E-013
 0.910940E-013
 0.910940E-013
 0.910940E-013
 0.910940E-013
 0.910940E-013
 0.910940E-013
 0.910940E-013
 0.910940E-013
 0.910940E-013
 0.910940E-013
 0.910940E-013
 0.910940E-013
 0.910941E-013
 0.910941E-013
 0.910941E-013
 0.910941E-013
 0.910941E-013
 0.910941E-013
 0.910941E-013
 0.910941E-013
 0.910941E-013
 0.910941E-013
 0.910941E-013
 0.910941E-013
 0.910941E-013
 0.910941E-013
 0.910941E-013
 0.910942E-013
 0.910942E-013
 0.910942E-013
 0.910942E-013
 0.910942E-013
 0.910942E-013
 0.910941E-013
 0.910941E-013
 0.910941E-013
 0.910941E-013
 0.910941E-013
 0.910941E-013
 0.910941E-013
 0.910941E-013
 0.910941E-013
 0.910941E-013
 0.910941E-013
 0.910941E-013
 0.910941E-013
 0.910941E-013
 0.910941E-013
 0.910940E-013
 0.910940E-013
 0.910940E-013
 0.910940E-013
 0.910940E-013
 0.910940E-013
 0.910940E-013
 0.910940E-013
 0.910940E-013
 0.910940E-013
 0.910940E-013
 0.910940E-013
 0.910940E-013
 0.910939E-013
 0.910939E-013
 0.910939E-013
 0.910939E-013
 0.910939E-013
 0.910939E-013
 0.910939E-013
 0.910939E-013
 0.910939E-013
 0.910939E-013
 0.910939E-013
 0.910939E-013
 0.910939E-013
 0.910939E-013
 0.910939E-013
 0.910939E-013
 0.910939E-013
 0.910939E-013
 0.910939E-013
 0.910939E-013
 0.910939E-013
 0.910939E-013
 0.910939E-013
 0.910939E-013
 0.910939E-013
 0.910937E-013
 0.910946E-013
 0.910899E-013
 0.911112E-013
 0.910281E-013
 0.912990E-013
 0.905859E-013
 0.920414E-013
 0.921323E-013
 0.905354E-013
 0.913198E-013
 0.910213E-013
 0.911130E-013
 0.910895E-013
 0.910947E-013
 0.910937E-013
 0.910939E-013
 0.910938E-013
 0.910938E-013
 0.910938E-013
 0.910938E-013
 0.910938E-013
 0.910938E-013
 0.910938E-013
 0.910938E-013
 0.910938E-013
 0.910938E-013
 0.910938E-013
 0.910938E-013
 0.910938E-013
 0.910938E-013
 0.910938E-013
 0.910938E-013
 0.910938E-013
 0.910939E-013
 0.910939E-013
 0.910939E-013
 0.910939E-013
 0.910939E-013
 0.910939E-013
 0.910939E-013
 0.910939E-013
 0.910939E-013
 0.910939E-013
 0.910939E-013
 0.910939E-013
 0.910939E-013
 0.910939E-013
 0.910939E-013
 0.910939E-013
 0.910939E-013
 0.910940E-013
 0.910940E-013
 0.910940E-013
 0.910940E-013
 0.910940E-013
 0.910940E-013
 0.910940E-013
 0.910940E-013
 0.910940E-013
 0.910940E-013
 0.910940E-013
 0.910940E-013
 0.910941E-013
 0.910941E-013
 0.910941E-013
 0.910941E-013
 0.910941E-013
 0.910941E-013
 0.910941E-013
 0.910941E-013
 0.910941E-013
 0.910941E-013
 0.910941E-013
 0.910941E-013
 0.910941E-013
 0.910941E-013
 0.910941E-013
 0.910941E-013
 0.910941E-013
 0.910941E-013
 0.910940E-013
 0.910940E-013
 0.910940E-013
 0.910940E-013
 0.910940E-013
 0.910940E-013
 0.910940E-013
 0.910940E-013
 0.910940E-013
 0.910940E-013
 0.910940E-013
 0.910940E-013
 0.910939E-013
 0.910939E-013
 0.910939E-013
 0.910939E-013
 0.910939E-013
 0.910939E-013
 0.910939E-013
 0.910939E-013
 0.910939E-013
 0.910939E-013
 0.910939E-013
 0.910939E-013
 0.910939E-013
 0.910939E-013
 0.910939E-013
 0.910939E-013
 0.910939E-013
 0.910938E-013
 0.910938E-013
 0.910938E-013
 0.910938E-013
 0.910938E-013
 0.910938E-013
 0.910938E-013
 0.910938E-013
 0.910938E-013
 0.910938E-013
 0.910938E-013
 0.910938E-013
 0.910938E-013
 0.910938E-013
 0.910938E-013
 0.910938E-013
 0.910938E-013
 0.910939E-013
 0.910937E-013
 0.910947E-013
 0.910895E-013
 0.911130E-013
 0.910213E-013
 0.913198E-013
 0.905354E-013
 0.921323E-013
 0.922230E-013
 0.904849E-013
 0.913406E-013
 0.910146E-013
 0.911148E-013
 0.910891E-013
 0.910948E-013
 0.910937E-013
 0.910939E-013
 0.910938E-013
 0.910938E-013
 0.910938E-013
 0.910938E-013
 0.910938E-013
 0.910938E-013
 0.910938E-013
 0.910938E-013
 0.910938E-013
 0.910938E-013
 0.910938E-013
 0.910938E-013
 0.910938E-013
 0.910939E-013
 0.910939E-013
 0.910939E-013
 0.910939E-013
 0.910939E-013
 0.910939E-013
 0.910939E-013
 0.910939E-013
 0.910939E-013
 0.910939E-013
 0.910939E-013
 0.910939E-013
 0.910939E-013
 0.910939E-013
 0.910939E-013
 0.910939E-013
 0.910939E-013
 0.910940E-013
 0.910940E-013
 0.910940E-013
 0.910940E-013
 0.910940E-013
 0.910940E-013
 0.910940E-013
 0.910940E-013
 0.910940E-013
 0.910940E-013