# vtk DataFile Version 3.0
Solution data
ASCII
DATASET STRUCTURED_GRID
DIMENSIONS 128 128 1
POINTS 16384  double
      0.000004      0.000004      0.000000
      0.000012      0.000004      0.000000
      0.000020      0.000004      0.000000
      0.000027      0.000004      0.000000
      0.000035      0.000004      0.000000
      0.000043      0.000004      0.000000
      0.000051      0.000004      0.000000
      0.000059      0.000004      0.000000
      0.000066      0.000004      0.000000
      0.000074      0.000004      0.000000
      0.000082      0.000004      0.000000
      0.000090      0.000004      0.000000
      0.000098      0.000004      0.000000
      0.000105      0.000004      0.000000
      0.000113      0.000004      0.000000
      0.000121      0.000004      0.000000
      0.000129      0.000004      0.000000
      0.000137      0.000004      0.000000
      0.000145      0.000004      0.000000
      0.000152      0.000004      0.000000
      0.000160      0.000004      0.000000
      0.000168      0.000004      0.000000
      0.000176      0.000004      0.000000
      0.000184      0.000004      0.000000
      0.000191      0.000004      0.000000
      0.000199      0.000004      0.000000
      0.000207      0.000004      0.000000
      0.000215      0.000004      0.000000
      0.000223      0.000004      0.000000
      0.000230      0.000004      0.000000
      0.000238      0.000004      0.000000
      0.000246      0.000004      0.000000
      0.000254      0.000004      0.000000
      0.000262      0.000004      0.000000
      0.000270      0.000004      0.000000
      0.000277      0.000004      0.000000
      0.000285      0.000004      0.000000
      0.000293      0.000004      0.000000
      0.000301      0.000004      0.000000
      0.000309      0.000004      0.000000
      0.000316      0.000004      0.000000
      0.000324      0.000004      0.000000
      0.000332      0.000004      0.000000
      0.000340      0.000004      0.000000
      0.000348      0.000004      0.000000
      0.000355      0.000004      0.000000
      0.000363      0.000004      0.000000
      0.000371      0.000004      0.000000
      0.000379      0.000004      0.000000
      0.000387      0.000004      0.000000
      0.000395      0.000004      0.000000
      0.000402      0.000004      0.000000
      0.000410      0.000004      0.000000
      0.000418      0.000004      0.000000
      0.000426      0.000004      0.000000
      0.000434      0.000004      0.000000
      0.000441      0.000004      0.000000
      0.000449      0.000004      0.000000
      0.000457      0.000004      0.000000
      0.000465      0.000004      0.000000
      0.000473      0.000004      0.000000
      0.000480      0.000004      0.000000
      0.000488      0.000004      0.000000
      0.000496      0.000004      0.000000
      0.000504      0.000004      0.000000
      0.000512      0.000004      0.000000
      0.000520      0.000004      0.000000
      0.000527      0.000004      0.000000
      0.000535      0.000004      0.000000
      0.000543      0.000004      0.000000
      0.000551      0.000004      0.000000
      0.000559      0.000004      0.000000
      0.000566      0.000004      0.000000
      0.000574      0.000004      0.000000
      0.000582      0.000004      0.000000
      0.000590      0.000004      0.000000
      0.000598      0.000004      0.000000
      0.000605      0.000004      0.000000
      0.000613      0.000004      0.000000
      0.000621      0.000004      0.000000
      0.000629      0.000004      0.000000
      0.000637      0.000004      0.000000
      0.000645      0.000004      0.000000
      0.000652      0.000004      0.000000
      0.000660      0.000004      0.000000
      0.000668      0.000004      0.000000
      0.000676      0.000004      0.000000
      0.000684      0.000004      0.000000
      0.000691      0.000004      0.000000
      0.000699      0.000004      0.000000
      0.000707      0.000004      0.000000
      0.000715      0.000004      0.000000
      0.000723      0.000004      0.000000
      0.000730      0.000004      0.000000
      0.000738      0.000004      0.000000
      0.000746      0.000004      0.000000
      0.000754      0.000004      0.000000
      0.000762      0.000004      0.000000
      0.000770      0.000004      0.000000
      0.000777      0.000004      0.000000
      0.000785      0.000004      0.000000
      0.000793      0.000004      0.000000
      0.000801      0.000004      0.000000
      0.000809      0.000004      0.000000
      0.000816      0.000004      0.000000
      0.000824      0.000004      0.000000
      0.000832      0.000004      0.000000
      0.000840      0.000004      0.000000
      0.000848      0.000004      0.000000
      0.000855      0.000004      0.000000
      0.000863      0.000004      0.000000
      0.000871      0.000004      0.000000
      0.000879      0.000004      0.000000
      0.000887      0.000004      0.000000
      0.000895      0.000004      0.000000
      0.000902      0.000004      0.000000
      0.000910      0.000004      0.000000
      0.000918      0.000004      0.000000
      0.000926      0.000004      0.000000
      0.000934      0.000004      0.000000
      0.000941      0.000004      0.000000
      0.000949      0.000004      0.000000
      0.000957      0.000004      0.000000
      0.000965      0.000004      0.000000
      0.000973      0.000004      0.000000
      0.000980      0.000004      0.000000
      0.000988      0.000004      0.000000
      0.000996      0.000004      0.000000
      0.000004      0.000012      0.000000
      0.000012      0.000012      0.000000
      0.000020      0.000012      0.000000
      0.000027      0.000012      0.000000
      0.000035      0.000012      0.000000
      0.000043      0.000012      0.000000
      0.000051      0.000012      0.000000
      0.000059      0.000012      0.000000
      0.000066      0.000012      0.000000
      0.000074      0.000012      0.000000
      0.000082      0.000012      0.000000
      0.000090      0.000012      0.000000
      0.000098      0.000012      0.000000
      0.000105      0.000012      0.000000
      0.000113      0.000012      0.000000
      0.000121      0.000012      0.000000
      0.000129      0.000012      0.000000
      0.000137      0.000012      0.000000
      0.000145      0.000012      0.000000
      0.000152      0.000012      0.000000
      0.000160      0.000012      0.000000
      0.000168      0.000012      0.000000
      0.000176      0.000012      0.000000
      0.000184      0.000012      0.000000
      0.000191      0.000012      0.000000
      0.000199      0.000012      0.000000
      0.000207      0.000012      0.000000
      0.000215      0.000012      0.000000
      0.000223      0.000012      0.000000
      0.000230      0.000012      0.000000
      0.000238      0.000012      0.000000
      0.000246      0.000012      0.000000
      0.000254      0.000012      0.000000
      0.000262      0.000012      0.000000
      0.000270      0.000012      0.000000
      0.000277      0.000012      0.000000
      0.000285      0.000012      0.000000
      0.000293      0.000012      0.000000
      0.000301      0.000012      0.000000
      0.000309      0.000012      0.000000
      0.000316      0.000012      0.000000
      0.000324      0.000012      0.000000
      0.000332      0.000012      0.000000
      0.000340      0.000012      0.000000
      0.000348      0.000012      0.000000
      0.000355      0.000012      0.000000
      0.000363      0.000012      0.000000
      0.000371      0.000012      0.000000
      0.000379      0.000012      0.000000
      0.000387      0.000012      0.000000
      0.000395      0.000012      0.000000
      0.000402      0.000012      0.000000
      0.000410      0.000012      0.000000
      0.000418      0.000012      0.000000
      0.000426      0.000012      0.000000
      0.000434      0.000012      0.000000
      0.000441      0.000012      0.000000
      0.000449      0.000012      0.000000
      0.000457      0.000012      0.000000
      0.000465      0.000012      0.000000
      0.000473      0.000012      0.000000
      0.000480      0.000012      0.000000
      0.000488      0.000012      0.000000
      0.000496      0.000012      0.000000
      0.000504      0.000012      0.000000
      0.000512      0.000012      0.000000
      0.000520      0.000012      0.000000
      0.000527      0.000012      0.000000
      0.000535      0.000012      0.000000
      0.000543      0.000012      0.000000
      0.000551      0.000012      0.000000
      0.000559      0.000012      0.000000
      0.000566      0.000012      0.000000
      0.000574      0.000012      0.000000
      0.000582      0.000012      0.000000
      0.000590      0.000012      0.000000
      0.000598      0.000012      0.000000
      0.000605      0.000012      0.000000
      0.000613      0.000012      0.000000
      0.000621      0.000012      0.000000
      0.000629      0.000012      0.000000
      0.000637      0.000012      0.000000
      0.000645      0.000012      0.000000
      0.000652      0.000012      0.000000
      0.000660      0.000012      0.000000
      0.000668      0.000012      0.000000
      0.000676      0.000012      0.000000
      0.000684      0.000012      0.000000
      0.000691      0.000012      0.000000
      0.000699      0.000012      0.000000
      0.000707      0.000012      0.000000
      0.000715      0.000012      0.000000
      0.000723      0.000012      0.000000
      0.000730      0.000012      0.000000
      0.000738      0.000012      0.000000
      0.000746      0.000012      0.000000
      0.000754      0.000012      0.000000
      0.000762      0.000012      0.000000
      0.000770      0.000012      0.000000
      0.000777      0.000012      0.000000
      0.000785      0.000012      0.000000
[...]
POINT_DATA 16384
SCALARS rhoe double
LOOKUP_TABLE default
 0.915824E-013
 0.912882E-013
 0.915273E-013
 0.915819E-013
 0.916887E-013
 0.917828E-013
 0.918791E-013
 0.919748E-013
 0.920703E-013
 0.921655E-013
 0.922604E-013
 0.923550E-013
 0.924493E-013
 0.925433E-013
 0.926369E-013
 0.927301E-013
 0.928230E-013
 0.929155E-013
 0.930075E-013
 0.930990E-013
 0.931900E-013
 0.932805E-013
 0.933703E-013
 0.934596E-013
 0.935481E-013
 0.936359E-013
 0.937229E-013
 0.938091E-013
 0.938944E-013
 0.939786E-013
 0.940619E-013
 0.941440E-013
 0.942250E-013
 0.943046E-013
 0.943830E-013
 0.944599E-013
 0.945353E-013
 0.946091E-013
 0.946812E-013
 0.947516E-013
 0.948200E-013
 0.948866E-013
 0.949511E-013
 0.950134E-013
 0.950735E-013
 0.951313E-013
 0.951866E-013
 0.952395E-013
 0.952898E-013
 0.953374E-013
 0.953822E-013
 0.954242E-013
 0.954632E-013
 0.954993E-013
 0.955324E-013
 0.955623E-013
 0.955890E-013
 0.956125E-013
 0.956328E-013
 0.956497E-013
 0.956633E-013
 0.956735E-013
 0.956803E-013
 0.956837E-013
 0.956837E-013
 0.956803E-013
 0.956735E-013
 0.956633E-013
 0.956497E-013
 0.956328E-013
 0.956125E-013
 0.955890E-013
 0.955623E-013
 0.955324E-013
 0.954993E-013
 0.954632E-013
 0.954242E-013
 0.953822E-013
 0.953374E-013
 0.952898E-013
 0.952395E-013
 0.951866E-013
 0.951313E-013
 0.950735E-013
 0.950134E-013
 0.949510E-013
 0.948866E-013
 0.948200E-013
 0.947516E-013
 0.946812E-013
 0.946091E-013
 0.945353E-013
 0.944599E-013
 0.943830E-013
 0.943046E-013
 0.942249E-013
 0.941440E-013
 0.940619E-013
 0.939786E-013
 0.938944E-013
 0.938091E-013
 0.937229E-013
 0.936359E-013
 0.935481E-013
 0.934596E-013
 0.933703E-013
 0.932805E-013
 0.931900E-013
 0.930990E-013
 0.930075E-013
 0.929155E-013
 0.928230E-013
 0.927301E-013
 0.926369E-013
 0.925432E-013
 0.924493E-013
 0.923550E-013
 0.922604E-013
 0.921655E-013
 0.920703E-013
 0.919748E-013
 0.918791E-013
 0.917828E-013
 0.916887E-013
 0.915819E-013
 0.915273E-013
 0.912882E-013
 0.915823E-013
 0.912882E-013
 0.908270E-013
 0.909545E-013
 0.908483E-013
 0.908150E-013
 0.907634E-013
 0.907158E-013
 0.906677E-013
 0.906198E-013
 0.905720E-013
 0.905244E-013
 0.904769E-013
 0.904296E-013
 0.903824E-013
 0.903355E-013
 0.902887E-013
 0.902421E-013
 0.901957E-013
 0.901496E-013
 0.901037E-013
 0.900580E-013
 0.900126E-013
 0.899676E-013
 0.899228E-013
 0.898784E-013
 0.898344E-013
 0.897908E-013
 0.897475E-013
 0.897048E-013
 0.896625E-013
 0.896208E-013
 0.895796E-013
 0.895390E-013
 0.894991E-013
 0.894598E-013
 0.894212E-013
 0.893834E-013
 0.893464E-013
 0.893102E-013
 0.892749E-013
 0.892406E-013
 0.892072E-013
 0.891749E-013
 0.891436E-013
 0.891135E-013
 0.890845E-013
 0.890567E-013
 0.890302E-013
 0.890050E-013
 0.889811E-013
 0.889587E-013
 0.889376E-013
 0.889180E-013
 0.888999E-013
 0.888833E-013
 0.888683E-013
 0.888549E-013
 0.888431E-013
 0.888330E-013
 0.888245E-013
 0.888177E-013
 0.888125E-013
 0.888091E-013
 0.888074E-013
 0.888074E-013
 0.888091E-013
 0.888125E-013
 0.888177E-013
 0.888245E-013
 0.888330E-013
 0.888431E-013
 0.888549E-013
 0.888683E-013
 0.888833E-013
 0.888999E-013
 0.889180E-013
 0.889376E-013
 0.889587E-013
 0.889812E-013
 0.890050E-013
 0.890302E-013
 0.890568E-013
 0.890845E-013
 0.891135E-013
 0.891436E-013
 0.891749E-013
 0.892073E-013
 0.892406E-013
 0.892750E-013
 0.893102E-013
 0.893464E-013
 0.893834E-013
 0.894212E-013
 0.894598E-013
 0.894991E-013
 0.895390E-013
 0.895796E-013
 0.896208E-013
 0.896626E-013
 0.897048E-013
 0.897476E-013
 0.897908E-013
 0.898344E-013
 0.898785E-013
 0.899229E-013
 0.899676E-013
 0.900127E-013
 0.900580E-013
 0.901037E-013
 0.901496E-013
 0.901957E-013
 0.902421E-013
 0.902887E-013
 0.903355E-013
 0.903825E-013
 0.904296E-013
 0.904769E-013
 0.905244E-013
 0.905720E-013
 0.906198E-013
 0.906677E-013
 0.907159E-013
 0.907634E-013
 0.908151E-013
 0.908483E-013
 0.909545E-013
 0.908271E-013
 0.912882E-013
 0.915273E-013
 0.909545E-013
 0.912221E-013
 0.911579E-013
 0.911972E-013
 0.912101E-013
 0.912285E-013
 0.912459E-013
 0.912634E-013
 0.912808E-013
 0.912981E-013
 0.913154E-013
 0.913327E-013
 0.913499E-013
 0.913670E-013
 0.913840E-013
 0.914010E-013
 0.914179E-013
 0.914347E-013
 0.914514E-013
 0.914681E-013
 0.914846E-013
 0.915010E-013
 0.915173E-013
 0.915334E-013
 0.915495E-013
 0.915654E-013
 0.915811E-013
 0.915967E-013
 0.916120E-013
 0.916272E-013
 0.916422E-013
 0.916570E-013
 0.916716E-013
 0.916859E-013
 0.916999E-013
 0.917137E-013
 0.917271E-013
 0.917403E-013
 0.917531E-013
 0.917656E-013
 0.917778E-013
 0.917895E-013
 0.918009E-013
 0.918119E-013
 0.918224E-013
 0.918325E-013
 0.918422E-013
 0.918514E-013
 0.918601E-013
 0.918682E-013
 0.918759E-013
 0.918830E-013
 0.918896E-013
 0.918957E-013
 0.919011E-013
 0.919060E-013
 0.919103E-013
 0.919140E-013
 0.919171E-013
 0.919196E-013
 0.919214E-013
 0.919227E-013
 0.919233E-013
 0.919233E-013
 0.919227E-013
 0.919214E-013
 0.919195E-013
 0.919171E-013
 0.919140E-013
 0.919103E-013
 0.919060E-013
 0.919011E-013
 0.918956E-013
 0.918896E-013
 0.918830E-013
 0.918759E-013
 0.918682E-013
 0.918600E-013
 0.918514E-013
 0.918422E-013
 0.918325E-013
 0.918224E-013
 0.918119E-013
 0.918009E-013
 0.917895E-013
 0.917778E-013
 0.917656E-013
 0.917531E-013
 0.917403E-013
 0.917271E-013
 0.917136E-013
 0.916999E-013
 0.916858E-013
 0.916715E-013
 0.916570E-013
 0.916422E-013
 0.916272E-013
 0.916120E-013
 0.915966E-013
 0.915811E-013
 0.915653E-013
 0.915495E-013
 0.915334E-013
 0.915173E-013
 0.915010E-013
 0.914846E-013
 0.914680E-013
 0.914514E-013
 0.914347E-013
 0.914179E-013
 0.914010E-013
 0.913840E-013
 0.913670E-013
 0.913499E-013
 0.913327E-013
 0.913154E-013
 0.912981E-013
 0.912808E-013
 0.912634E-013
 0.912459E-013
 0.912285E-013
 0.912101E-013
 0.911972E-013
 0.911579E-013
 0.912221E-013
 0.909545E-013
 0.915273E-013
 0.915819E-013
 0.908483E-013
 0.911579E-013
 0.910486E-013
 0.910713E-013
 0.910602E-013
 0.910564E-013
 0.910512E-013
 0.910463E-013
 0.910414E-013
 0.910364E-013
 0.910315E-013
 0.910266E-013
 0.910218E-013
 0.910169E-013
 0.910121E-013
 0.910073E-013
 0.910025E-013
 0.909977E-013
 0.909930E-013
 0.909883E-013
 0.909836E-013
 0.909790E-013
 0.909744E-013
 0.909698E-013
 0.909652E-013
 0.909608E-013
 0.909563E-013
 0.909519E-013
 0.909475E-013
 0.909432E-013
 0.909390E-013
 0.909348E-013
 0.909307E-013
 0.909267E-013
 0.909227E-013
 0.909188E-013
 0.909150E-013
 0.909113E-013
 0.909077E-013
 0.909041E-013
 0.909007E-013
 0.908974E-013
 0.908942E-013
 0.908911E-013
 0.908881E-013
 0.908852E-013
 0.908825E-013
 0.908799E-013
 0.908775E-013
 0.908752E-013
 0.908730E-013
 0.908710E-013
 0.908691E-013
 0.908674E-013
 0.908659E-013
 0.908645E-013
 0.908633E-013
 0.908623E-013
 0.908614E-013
 0.908607E-013
 0.908602E-013
 0.908598E-013
 0.908596E-013
 0.908596E-013
 0.908598E-013
 0.908602E-013
 0.908607E-013
 0.908614E-013
 0.908623E-013
 0.908633E-013
 0.908645E-013
 0.908659E-013
 0.908674E-013
 0.908691E-013
 0.908710E-013
 0.908730E-013
 0.908752E-013
 0.908775E-013
 0.908799E-013
 0.908825E-013
 0.908852E-013
 0.908881E-013
 0.908911E-013
 0.908942E-013
 0.908974E-013
 0.909007E-013
 0.909041E-013
 0.909077E-013
 0.909113E-013
 0.909150E-013
 0.909188E-013
 0.909227E-013
 0.909267E-013
 0.909307E-013
 0.909348E-013
 0.909390E-013
 0.909433E-013
 0.909476E-013
 0.909519E-013
 0.909563E-013
 0.909608E-013
 0.909653E-013
 0.909698E-013
 0.909744E-013
 0.909790E-013
 0.909836E-013
 0.909883E-013
 0.909930E-013
 0.909977E-013
 0.910025E-013
 0.910073E-013
 0.910121E-013
 0.910169E-013
 0.910218E-013
 0.910266E-013
 0.910315E-013
 0.910364E-013
 0.910414E-013
 0.910463E-013
 0.910512E-013
 0.910564E-013
 0.910602E-013
 0.910713E-013
 0.910486E-013
 0.911579E-013
 0.908483E-013
 0.915819E-013
 0.916887E-013
 0.908150E-013
 0.911972E-013
 0.910713E-013
 0.911065E-013
 0.911001E-013
 0.911027E-013
 0.911036E-013
 0.911048E-013
 0.911059E-013
 0.911070E-013
 0.911082E-013
 0.911093E-013
 0.911104E-013
 0.911116E-013
 0.911127E-013
 0.911138E-013
 0.911149E-013
 0.911160E-013
 0.911171E-013
 0.911182E-013
 0.911193E-013
 0.911203E-013
 0.911214E-013
 0.911225E-013
 0.911235E-013
 0.911246E-013
 0.911256E-013
 0.911266E-013
 0.911276E-013
 0.911286E-013
 0.911296E-013
 0.911306E-013
 0.911315E-013
 0.911325E-013
 0.911334E-013
 0.911343E-013
 0.911352E-013
 0.911360E-013
 0.911369E-013
 0.911377E-013
 0.911385E-013
 0.911393E-013
 0.911400E-013
 0.911407E-013
 0.911414E-013
 0.911421E-013
 0.911427E-013
 0.911433E-013
 0.911439E-013
 0.911444E-013
 0.911450E-013
 0.911454E-013
 0.911459E-013
 0.911463E-013
 0.911466E-013
 0.911469E-013
 0.911472E-013
 0.911475E-013
 0.911477E-013
 0.911478E-013
 0.911479E-013
 0.911480E-013
 0.911481E-013
 0.911481E-013
 0.911480E-013
 0.911479E-013
 0.911478E-013
 0.911477E-013
 0.911475E-013
 0.911472E-013
 0.911469E-013
 0.911466E-013
 0.911463E-013
 0.911459E-013
 0.911454E-013
 0.911450E-013
 0.911444E-013
 0.911439E-013
 0.911433E-013
 0.911427E-013
 0.911421E-013
 0.911414E-013
 0.911407E-013
 0.911400E-013
 0.911393E-013
 0.911385E-013
 0.911377E-013
 0.911369E-013
 0.911360E-013
 0.911352E-013
 0.911343E-013
 0.911334E-013
 0.911325E-013
 0.911315E-013
 0.911306E-013
 0.911296E-013
 0.911286E-013
 0.911276E-013
 0.911266E-013
 0.911256E-013
 0.911246E-013
 0.911235E-013
 0.911225E-013
 0.911214E-013
 0.911203E-013
 0.911193E-013
 0.911182E-013
 0.911171E-013
 0.911160E-013
 0.911149E-013
 0.911138E-013
 0.911127E-013
 0.911116E-013
 0.911104E-013
 0.911093E-013
 0.911082E-013
 0.911070E-013
 0.911059E-013
 0.911048E-013
 0.911036E-013
 0.911027E-013
 0.911001E-013
 0.911065E-013
 0.910713E-013
 0.911972E-013
 0.908151E-013
 0.916887E-013
 0.917828E-013
 0.907634E-013
 0.912101E-013
 0.910602E-013
 0.911001E-013
 0.910909E-013
 0.910924E-013
 0.910919E-013
 0.910917E-013
 0.910915E-013
 0.910913E-013
 0.910910E-013
 0.910908E-013
 0.910906E-013
 0.910904E-013
 0.910902E-013
 0.910899E-013
 0.910897E-013
 0.910895E-013
 0.910893E-013
 0.910891E-013
 0.910889E-013
 0.910887E-013
 0.910885E-013
 0.910883E-013
 0.910881E-013
 0.910879E-013
 0.910877E-013
 0.910875E-013
 0.910873E-013
 0.910871E-013
 0.910869E-013
 0.910867E-013
 0.910865E-013
 0.910864E-013
 0.910862E-013
 0.910860E-013
 0.910858E-013
 0.910857E-013
 0.910855E-013
 0.910854E-013
 0.910852E-013
 0.910851E-013
 0.910849E-013
 0.910848E-013
 0.910847E-013
 0.910845E-013
 0.910844E-013
 0.910843E-013
 0.910842E-013
 0.910841E-013
 0.910840E-013
 0.910839E-013
 0.910839E-013
 0.910838E-013
 0.910837E-013
 0.910837E-013
 0.910836E-013
 0.910836E-013
 0.910835E-013
 0.910835E-013
 0.910835E-013
 0.910835E-013
 0.910835E-013
 0.910835E-013
 0.910835E-013
 0.910835E-013
 0.910835E-013
 0.910835E-013
 0.910836E-013
 0.910836E-013
 0.910837E-013
 0.910837E-013
 0.910838E-013
 0.910839E-013
 0.910839E-013
 0.910840E-013
 0.910841E-013
 0.910842E-013
 0.910843E-013
 0.910844E-013
 0.910846E-013
 0.910847E-013
 0.910848E-013
 0.910849E-013
 0.910851E-013
 0.910852E-013
 0.910854E-013
 0.910855E-013
 0.910857E-013
 0.910858E-013
 0.910860E-013
 0.910862E-013
 0.910864E-013
 0.910865E-013
 0.910867E-013
 0.910869E-013
 0.910871E-013
 0.910873E-013
 0.910875E-013
 0.910877E-013
 0.910879E-013
 0.910881E-013
 0.910883E-013
 0.910885E-013
 0.910887E-013
 0.910889E-013
 0.910891E-013
 0.910893E-013
 0.910895E-013
 0.910897E-013
 0.910900E-013
 0.910902E-013
 0.910904E-013
 0.910906E-013
 0.910908E-013
 0.910910E-013
 0.910913E-013
 0.910915E-013
 0.910917E-013
 0.910919E-013
 0.910924E-013
 0.910909E-013
 0.911001E-013
 0.910602E-013
 0.912101E-013
 0.907634E-013
 0.917828E-013
 0.918791E-013
 0.907158E-013
 0.912285E-013
 0.910564E-013
 0.911027E-013
 0.910924E-013
 0.910944E-013
 0.910941E-013
 0.910942E-013
 0.910942E-013
 0.910943E-013
 0.910943E-013
 0.910943E-013
 0.910944E-013
 0.910944E-013
 0.910945E-013
 0.910945E-013
 0.910945E-013
 0.910946E-013
 0.910946E-013
 0.910946E-013
 0.910947E-013
 0.910947E-013
 0.910947E-013
 0.910948E-013
 0.910948E-013
 0.910949E-013
 0.910949E-013
 0.910949E-013
 0.910950E-013
 0.910950E-013
 0.910950E-013
 0.910951E-013
 0.910951E-013
 0.910951E-013
 0.910952E-013
 0.910952E-013
 0.910953E-013
 0.910953E-013
 0.910953E-013
 0.910954E-013
 0.910954E-013
 0.910954E-013
 0.910954E-013
 0.910955E-013
 0.910955E-013
 0.910955E-013
 0.910956E-013
 0.910956E-013
 0.910956E-013
 0.910956E-013
 0.910957E-013
 0.910957E-013
 0.910957E-013
 0.910957E-013
 0.910957E-013
 0.910958E-013
 0.910958E-013
 0.910958E-013
 0.910958E-013
 0.910958E-013
 0.910958E-013
 0.910958E-013
 0.910958E-013
 0.910958E-013
 0.910958E-013
 0.910958E-013
 0.910958E-013
 0.910958E-013
 0.910958E-013
 0.910958E-013
 0.910958E-013
 0.910957E-013
 0.910957E-013
 0.910957E-013
 0.910957E-013
 0.910957E-013
 0.910956E-013
 0.910956E-013
 0.910956E-013
 0.910956E-013
 0.910955E-013
 0.910955E-013
 0.910955E-013
 0.910954E-013
 0.910954E-013
 0.910954E-013
 0.910954E-013
 0.910953E-013
 0.910953E-013
 0.910953E-013
 0.910952E-013
 0.910952E-013
 0.910951E-013
 0.910951E-013
 0.910951E-013
 0.910950E-013
 0.910950E-013
 0.910950E-013
 0.910949E-013
 0.910949E-013
 0.910949E-013
 0.910948E-013
 0.910948E-013
 0.910947E-013
 0.910947E-013
 0.910947E-013
 0.910946E-013
 0.910946E-013
 0.910946E-013
 0.910945E-013
 0.910945E-013
 0.910945E-013
 0.910944E-013
 0.910944E-013
 0.910943E-013
 0.910943E-013
 0.910943E-013
 0.910942E-013
 0.910942E-013
 0.910941E-013
 0.910944E-013
 0.910924E-013
 0.911027E-013
 0.910564E-013
 0.912285E-013
 0.907159E-013
 0.918791E-013
 0.919748E-013
 0.906677E-013
 0.912459E-013
 0.910512E-013
 0.911036E-013
 0.910919E-013
 0.910941E-013
 0.910937E-013
 0.910938E-013
 0.910938E-013
 0.910938E-013
 0.910938E-013
 0.910938E-013
 0.910938E-013
 0.910937E-013
 0.910937E-013
 0.910937E-013
 0.910937E-013
 0.910937E-013
 0.910937E-013
 0.910937E-013
 0.910937E-013
 0.910937E-013
 0.910937E-013
 0.910937E-013
 0.910937E-013
 0.910937E-013
 0.910937E-013
 0.910937E-013
 0.910937E-013
 0.910937E-013
 0.910937E-013
 0.910937E-013
 0.910937E-013
 0.910937E-013
 0.910937E-013
 0.910937E-013
 0.910937E-013
 0.910937E-013
 0.910937E-013
 0.910937E-013
 0.910937E-013
 0.910937E-013
 0.910937E-013
 0.910937E-013
 0.910937E-013
 0.910937E-013
 0.910938E-013
 0.910938E-013
 0.910938E-013
 0.910938E-013
 0.910938E-013
 0.910938E-013
 0.910938E-013
 0.910938E-013
 0.910938E-013
 0.910938E-013
 0.910938E-013
 0.910938E-013
 0.910938E-013
 0.910938E-013
 0.910938E-013
 0.910938E-013
 0.910938E-013
 0.910938E-013
 0.910938E-013
 0.910938E-013
 0.910938E-013
 0.910938E-013
 0.910938E-013
 0.910938E-013
 0.910938E-013
 0.910938E-013
 0.910938E-013
 0.910938E-013
 0.910938E-013
 0.910938E-013
 0.910938E-013
 0.910938E-013
 0.910938E-013
 0.910938E-013
 0.910937E-013
 0.910937E-013
 0.910937E-013
 0.910937E-013
 0.910937E-013
 0.910937E-013
 0.910937E-013
 0.910937E-013
 0.910937E-013
 0.910937E-013
 0.910937E-013
 0.910937E-013
 0.910937E-013
 0.910937E-013
 0.910937E-013
 0.910937E-013
 0.910937E-013
 0.910937E-013
 0.910937E-013
 0.910937E-013
 0.910937E-013
 0.910937E-013
 0.910937E-013
 0.910937E-013
 0.910937E-013
 0.910937E-013
 0.910937E-013
 0.910937E-013
 0.910937E-013
 0.910937E-013
 0.910937E-013
 0.910937E-013
 0.910938E-013
 0.910938E-013
 0.910938E-013
 0.910938E-013
 0.910938E-013
 0.910938E-013
 0.910938E-013
 0.910937E-013
 0.910941E-013
 0.910919E-013
 0.911036E-013
 0.910512E-013
 0.912459E-013
 0.906677E-013
 0.919748E-013
 0.920703E-013
 0.906198E-013
 0.912634E-013
 0.910463E-013
 0.911048E-013
 0.910917E-013
 0.910942E-013
 0.910938E-013
 0.910938E-013
 0.910938E-013
 0.910938E-013
 0.910938E-013
 0.910938E-013
 0.910938E-013
 0.910938E-013
 0.910938E-013
 0.910938E-013
 0.910939E-013
 0.910939E-013
 0.910939E-013
 0.910939E-013
 0.910939E-013
 0.910939E-013
 0.910939E-013
 0.910939E-013
 0.910939E-013
 0.910939E-013
 0.910939E-013
 0.910939E-013
 0.910939E-013
 0.910939E-013
 0.910939E-013
 0.910939E-013
 0.910939E-013
 0.910939E-013
 0.910939E-013
 0.910939E-013
 0.910940E-013
 0.910940E-013
 0.910940E-013
 0.910940E-013
 0.910940E-013
 0.910940E-013
 0.910940E-013
 0.910940E-013
 0.910940E-013
 0.910940E-013
 0.910940E-013
 0.910941E-013
 0.910941E-013
 0.910941E-013
 0.910941E-013
 0.910941E-013
 0.910941E-013
 0.910941E-013
 0.910941E-013
 0.910941E-013
 0.910941E-013
 0.910941E-013
 0.910941E-013
 0.910942E-013
 0.910942E-013
 0.910942E-013
 0.910942E-013
 0.910942E-013
 0.910942E-013
 0.910942E-013
 0.910942E-013
 0.910941E-013
 0.910941E-013
 0.910941E-013
 0.910941E-013
 0.910941E-013
 0.910941E-013
 0.910941E-013
 0.910941E-013
 0.910941E-013
 0.910941E-013
 0.910941E-013
 0.910941E-013
 0.910941E-013
 0.910940E-013
 0.910940E-013
 0.910940E-013
 0.910940E-013
 0.910940E-013
 0.910940E-013
 0.910940E-013
 0.910940E-013
 0.910940E-013
 0.910940E-013
 0.910939E-013
 0.910939E-013
 0.910939E-013
 0.910939E-013
 0.910939E-013
 0.910939E-013
 0.910939E-013
 0.910939E-013
 0.910939E-013
 0.910939E-013
 0.910939E-013
 0.910939E-013
 0.910939E-013
 0.910939E-013
 0.910939E-013
 0.910939E-013
 0.910939E-013
 0.910939E-013
 0.910939E-013
 0.910939E-013
 0.910939E-013
 0.910938E-013
 0.910938E-013
 0.910938E-013
 0.910938E-013
 0.910938E-013
 0.910938E-013
 0.910938E-013
 0.910938E-013
 0.910938E-013
 0.910942E-013
 0.910917E-013
 0.911048E-013
 0.910463E-013
 0.912634E-013
 0.906198E-013
 0.920703E-013
 0.921655E-013
 0.905720E-013
 0.912808E-013
 0.910414E-013
 0.911059E-013
 0.910915E-013
 0.910942E-013
 0.910938E-013
 0.910938E-013
 0.910938E-013
 0.910938E-013
 0.910938E-013
 0.910938E-013
 0.910938E-013
 0.910938E-013
 0.910938E-013
 0.910938E-013
 0.910938E-013
 0.910938E-013
 0.910938E-013
 0.910938E-013
 0.910938E-013
 0.910938E-013
 0.910939E-013
 0.910939E-013
 0.910939E-013
 0.910939E-013
 0.910939E-013
 0.910939E-013
 0.910939E-013
 0.910939E-013
 0.910939E-013
 0.910939E-013
 0.910939E-013
 0.910939E-013
 0.910939E-013
 0.910939E-013
 0.910939E-013
 0.910939E-013
 0.910940E-013
 0.910940E-013
 0.910940E-013
 0.910940E-013
 0.910940E-013
 0.910940E-013
 0.910940E-013
 0.910940E-013
 0.910940E-013
 0.910941E-013
 0.910941E-013
 0.910941E-013
 0.910941E-013
 0.910941E-013
 0.910941E-013
 0.910941E-013
 0.910941E-013
 0.910941E-013
 0.910941E-013
 0.910942E-013
 0.910942E-013
 0.910942E-013
 0.910942E-013
 0.910942E-013
 0.910942E-013
 0.910942E-013
 0.910942E-013
 0.910942E-013
 0.910942E-013
 0.910942E-013
 0.910942E-013
 0.910941E-013
 0.910941E-013
 0.910941E-013
 0.910941E-013
 0.910941E-013
 0.910941E-013
 0.910941E-013
 0.910941E-013
 0.910941E-013
 0.910941E-013
 0.910941E-013
 0.910940E-013
 0.910940E-013
 0.910940E-013
 0.910940E-013
 0.910940E-013
 0.910940E-013
 0.910940E-013
 0.910940E-013
 0.910939E-013
 0.910939E-013
 0.910939E-013
 0.910939E-013
 0.910939E-013
 0.910939E-013
 0.910939E-013
 0.910939E-013
 0.910939E-013
 0.910939E-013
 0.910939E-013
 0.910939E-013
 0.910939E-013
 0.910939E-013
 0.910939E-013
 0.910939E-013
 0.910938E-013
 0.910938E-013
 0.910938E-013
 0.910938E-013
 0.910938E-013
 0.910938E-013
 0.910938E-013
 0.910938E-013
 0.910938E-013
 0.910938E-013
 0.910938E-013
 0.910938E-013
 0.910938E-013
 0.910938E-013
 0.910938E-013
 0.910938E-013
 0.910942E-013
 0.910915E-013
 0.911059E-013
 0.910414E-013
 0.912808E-013
 0.905720E-013
 0.921655E-013
 0.922604E-013
 0.905244E-013
 0.912981E-013
 0.910364E-013
 0.911070E-013
 0.910913E-013
 0.910943E-013
 0.910938E-013
 0.910938E-013
 0.910938E-013
 0.910938E-013
 0.910938E-013
 0.910938E-013
 0.910938E-013
 0.910938E-013
 0.910938E-013
 0.910938E-013
 0.910938E-013
 0.910938E-013
 0.910938E-013
 0.910938E-013
 0.910939E-013
 0.910939E-013
 0.910939E-013
 0.910939E-013
 0.910939E-013
 0.910939E-013
 0.910939E-013
 0.910939E-013
 0.910939E-013
 0.910939E-013
 0.910939E-013
 0.910939E-013
 0.910939E-013
 0.910939E-013
 0.910939E-013
 0.910940E-013
 0.910940E-013
 0.910940E-013
 0.910940E-013
 0.910940E-013
 0.910940E-013
 0.910940E-013
 0.910940E-013
 0.910941E-013
 0.910941E-013
 0.910941E-013
 0.910941E-013
 0.910941E-013