# vtk DataFile Version 3.0
Solution data
ASCII
DATASET STRUCTURED_GRID
DIMENSIONS 128 128 1
POINTS 16384  double
      0.000004      0.000004      0.000000
      0.000012      0.000004      0.000000
      0.000020      0.000004      0.000000
      0.000027      0.000004      0.000000
      0.000035      0.000004      0.000000
      0.000043      0.000004      0.000000
      0.000051      0.000004      0.000000
      0.000059      0.000004      0.000000
      0.000066      0.000004      0.000000
      0.000074      0.000004      0.000000
      0.000082      0.000004      0.000000
      0.000090      0.000004      0.000000
      0.000098      0.000004      0.000000
      0.000105      0.000004      0.000000
      0.000113      0.000004      0.000000
      0.000121      0.000004      0.000000
      0.000129      0.000004      0.000000
      0.000137      0.000004      0.000000
      0.000145      0.000004      0.000000
      0.000152      0.000004      0.000000
      0.000160      0.000004      0.000000
      0.000168      0.000004      0.000000
      0.000176      0.000004      0.000000
      0.000184      0.000004      0.000000
      0.000191      0.000004      0.000000
      0.000199      0.000004      0.000000
      0.000207      0.000004      0.000000
      0.000215      0.000004      0.000000
      0.000223      0.000004      0.000000
      0.000230      0.000004      0.000000
      0.000238      0.000004      0.000000
      0.000246      0.000004      0.000000
      0.000254      0.000004      0.000000
      0.000262      0.000004      0.000000
      0.000270      0.000004      0.000000
      0.000277      0.000004      0.000000
      0.000285      0.000004      0.000000
      0.000293      0.000004      0.000000
      0.000301      0.000004      0.000000
      0.000309      0.000004      0.000000
      0.000316      0.000004      0.000000
      0.000324      0.000004      0.000000
      0.000332      0.000004      0.000000
      0.000340      0.000004      0.000000
      0.000348      0.000004      0.000000
      0.000355      0.000004      0.000000
      0.000363      0.000004      0.000000
      0.000371      0.000004      0.000000
      0.000379      0.000004      0.000000
      0.000387      0.000004      0.000000
      0.000395      0.000004      0.000000
      0.000402      0.000004      0.000000
      0.000410      0.000004      0.000000
      0.000418      0.000004      0.000000
      0.000426      0.000004      0.000000
      0.000434      0.000004      0.000000
      0.000441      0.000004      0.000000
      0.000449      0.000004      0.000000
      0.000457      0.000004      0.000000
      0.000465      0.000004      0.000000
      0.000473      0.000004      0.000000
      0.000480      0.000004      0.000000
      0.000488      0.000004      0.000000
      0.000496      0.000004      0.000000
      0.000504      0.000004      0.000000
      0.000512      0.000004      0.000000
      0.000520      0.000004      0.000000
      0.000527      0.000004      0.000000
      0.000535      0.000004      0.000000
      0.000543      0.000004      0.000000
      0.000551      0.000004      0.000000
      0.000559      0.000004      0.000000
      0.000566      0.000004      0.000000
      0.000574      0.000004      0.000000
      0.000582      0.000004      0.000000
      0.000590      0.000004      0.000000
      0.000598      0.000004      0.000000
      0.000605      0.000004      0.000000
      0.000613      0.000004      0.000000
      0.000621      0.000004      0.000000
      0.000629      0.000004      0.000000
      0.000637      0.000004      0.000000
      0.000645      0.000004      0.000000
      0.000652      0.000004      0.000000
      0.000660      0.000004      0.000000
      0.000668      0.000004      0.000000
      0.000676      0.000004      0.000000
      0.000684      0.000004      0.000000
      0.000691      0.000004      0.000000
      0.000699      0.000004      0.000000
      0.000707      0.000004      0.000000
      0.000715      0.000004      0.000000
      0.000723      0.000004      0.000000
      0.000730      0.000004      0.000000
      0.000738      0.000004      0.000000
      0.000746      0.000004      0.000000
      0.000754      0.000004      0.000000
      0.000762      0.000004      0.000000
      0.000770      0.000004      0.000000
      0.000777      0.000004      0.000000
      0.000785      0.000004      0.000000
      0.000793      0.000004      0.000000
      0.000801      0.000004      0.000000
      0.000809      0.000004      0.000000
      0.000816      0.000004      0.000000
      0.000824      0.000004      0.000000
      0.000832      0.000004      0.000000
      0.000840      0.000004      0.000000
      0.000848      0.000004      0.000000
      0.000855      0.000004      0.000000
      0.000863      0.000004      0.000000
      0.000871      0.000004      0.000000
      0.000879      0.000004      0.000000
      0.000887      0.000004      0.000000
      0.000895      0.000004      0.000000
      0.000902      0.000004      0.000000
      0.000910      0.000004      0.000000
      0.000918      0.000004      0.000000
      0.000926      0.000004      0.000000
      0.000934      0.000004      0.000000
      0.000941      0.000004      0.000000
      0.000949      0.000004      0.000000
      0.000957      0.000004      0.000000
      0.000965      0.000004      0.000000
      0.000973      0.000004      0.000000
      0.000980      0.000004      0.000000
      0.000988      0.000004      0.000000
      0.000996      0.000004      0.000000
      0.000004      0.000012      0.000000
      0.000012      0.000012      0.000000
      0.000020      0.000012      0.000000
      0.000027      0.000012      0.000000
      0.000035      0.000012      0.000000
      0.000043      0.000012      0.000000
      0.000051      0.000012      0.000000
      0.000059      0.000012      0.000000
      0.000066      0.000012      0.000000
      0.000074      0.000012      0.000000
      0.000082      0.000012      0.000000
      0.000090      0.000012      0.000000
      0.000098      0.000012      0.000000
      0.000105      0.000012      0.000000
      0.000113      0.000012      0.000000
      0.000121      0.000012      0.000000
      0.000129      0.000012      0.000000
      0.000137      0.000012      0.000000
      0.000145      0.000012      0.000000
      0.000152      0.000012      0.000000
      0.000160      0.000012      0.000000
      0.000168      0.000012      0.000000
      0.000176      0.000012      0.000000
      0.000184      0.000012      0.000000
      0.000191      0.000012      0.000000
      0.000199      0.000012      0.000000
      0.000207      0.000012      0.000000
      0.000215      0.000012      0.000000
      0.000223      0.000012      0.000000
      0.000230      0.000012      0.000000
      0.000238      0.000012      0.000000
      0.000246      0.000012      0.000000
      0.000254      0.000012      0.000000
      0.000262      0.000012      0.000000
      0.000270      0.000012      0.000000
      0.000277      0.000012      0.000000
      0.000285      0.000012      0.000000
      0.000293      0.000012      0.000000
      0.000301      0.000012      0.000000
      0.000309      0.000012      0.000000
      0.000316      0.000012      0.000000
      0.000324      0.000012      0.000000
      0.000332      0.000012      0.000000
      0.000340      0.000012      0.000000
      0.000348      0.000012      0.000000
      0.000355      0.000012      0.000000
      0.000363      0.000012      0.000000
      0.000371      0.000012      0.000000
      0.000379      0.000012      0.000000
      0.000387      0.000012      0.000000
      0.000395      0.000012      0.000000
      0.000402      0.000012      0.000000
      0.000410      0.000012      0.000000
      0.000418      0.000012      0.000000
      0.000426      0.000012      0.000000
      0.000434      0.000012      0.000000
      0.000441      0.000012      0.000000
      0.000449      0.000012      0.000000
      0.000457      0.000012      0.000000
      0.000465      0.000012      0.000000
      0.000473      0.000012      0.000000
      0.000480      0.000012      0.000000
      0.000488      0.000012      0.000000
      0.000496      0.000012      0.000000
      0.000504      0.000012      0.000000
      0.000512      0.000012      0.000000
      0.000520      0.000012      0.000000
      0.000527      0.000012      0.000000
      0.000535      0.000012      0.000000
      0.000543      0.000012      0.000000
      0.000551      0.000012      0.000000
      0.000559      0.000012      0.000000
      0.000566      0.000012      0.000000
      0.000574      0.000012      0.000000
      0.000582      0.000012      0.000000
      0.000590      0.000012      0.000000
      0.000598      0.000012      0.000000
      0.000605      0.000012      0.000000
      0.000613      0.000012      0.000000
      0.000621      0.000012      0.000000
      0.000629      0.000012      0.000000
      0.000637      0.000012      0.000000
      0.000645      0.000012      0.000000
      0.000652      0.000012      0.000000
      0.000660      0.000012      0.000000
      0.000668      0.000012      0.000000
      0.000676      0.000012      0.000000
      0.000684      0.000012      0.000000
      0.000691      0.000012      0.000000
      0.000699      0.000012      0.000000
      0.000707      0.000012      0.000000
      0.000715      0.000012      0.000000
      0.000723      0.000012      0.000000
      0.000730      0.000012      0.000000
      0.000738      0.000012      0.000000
      0.000746      0.000012      0.000000
      0.000754      0.000012      0.000000
      0.000762      0.000012      0.000000
      0.000770      0.000012      0.000000
      0.000777      0.000012      0.000000
      0.000785      0.000012      0.000000
[...]
POINT_DATA 16384
SCALARS rhoe double
LOOKUP_TABLE default
 0.916045E-013
 0.912740E-013
 0.915332E-013
 0.915731E-013
 0.916807E-013
 0.917703E-013
 0.918636E-013
 0.919559E-013
 0.920480E-013
 0.921399E-013
 0.922315E-013
 0.923228E-013
 0.924138E-013
 0.925044E-013
 0.925948E-013
 0.926847E-013
 0.927743E-013
 0.928635E-013
 0.929522E-013
 0.930405E-013
 0.931282E-013
 0.932155E-013
 0.933021E-013
 0.933881E-013
 0.934734E-013
 0.935581E-013
 0.936419E-013
 0.937249E-013
 0.938071E-013
 0.938883E-013
 0.939684E-013
 0.940475E-013
 0.941255E-013
 0.942022E-013
 0.942776E-013
 0.943517E-013
 0.944242E-013
 0.944953E-013
 0.945647E-013
 0.946324E-013
 0.946983E-013
 0.947623E-013
 0.948243E-013
 0.948842E-013
 0.949420E-013
 0.949976E-013
 0.950509E-013
 0.951017E-013
 0.951500E-013
 0.951957E-013
 0.952388E-013
 0.952792E-013
 0.953168E-013
 0.953514E-013
 0.953832E-013
 0.954119E-013
 0.954376E-013
 0.954602E-013
 0.954797E-013
 0.954959E-013
 0.955090E-013
 0.955188E-013
 0.955254E-013
 0.955286E-013
 0.955286E-013
 0.955254E-013
 0.955188E-013
 0.955090E-013
 0.954959E-013
 0.954797E-013
 0.954602E-013
 0.954376E-013
 0.954119E-013
 0.953832E-013
 0.953514E-013
 0.953168E-013
 0.952792E-013
 0.952388E-013
 0.951958E-013
 0.951500E-013
 0.951017E-013
 0.950509E-013
 0.949976E-013
 0.949421E-013
 0.948842E-013
 0.948243E-013
 0.947623E-013
 0.946983E-013
 0.946324E-013
 0.945647E-013
 0.944953E-013
 0.944242E-013
 0.943517E-013
 0.942776E-013
 0.942022E-013
 0.941255E-013
 0.940475E-013
 0.939684E-013
 0.938883E-013
 0.938071E-013
 0.937249E-013
 0.936419E-013
 0.935581E-013
 0.934735E-013
 0.933881E-013
 0.933021E-013
 0.932155E-013
 0.931282E-013
 0.930405E-013
 0.929522E-013
 0.928635E-013
 0.927743E-013
 0.926847E-013
 0.925948E-013
 0.925044E-013
 0.924138E-013
 0.923228E-013
 0.922315E-013
 0.921399E-013
 0.920480E-013
 0.919559E-013
 0.918636E-013
 0.917703E-013
 0.916807E-013
 0.915731E-013
 0.915332E-013
 0.912740E-013
 0.916045E-013
 0.912740E-013
 0.908067E-013
 0.909491E-013
 0.908285E-013
 0.907981E-013
 0.907425E-013
 0.906931E-013
 0.906426E-013
 0.905924E-013
 0.905423E-013
 0.904924E-013
 0.904427E-013
 0.903931E-013
 0.903437E-013
 0.902945E-013
 0.902455E-013
 0.901968E-013
 0.901482E-013
 0.900999E-013
 0.900518E-013
 0.900040E-013
 0.899565E-013
 0.899093E-013
 0.898625E-013
 0.898160E-013
 0.897699E-013
 0.897242E-013
 0.896790E-013
 0.896342E-013
 0.895900E-013
 0.895463E-013
 0.895032E-013
 0.894607E-013
 0.894189E-013
 0.893778E-013
 0.893375E-013
 0.892979E-013
 0.892592E-013
 0.892214E-013
 0.891845E-013
 0.891486E-013
 0.891137E-013
 0.890798E-013
 0.890471E-013
 0.890156E-013
 0.889853E-013
 0.889563E-013
 0.889286E-013
 0.889022E-013
 0.888773E-013
 0.888538E-013
 0.888317E-013
 0.888112E-013
 0.887923E-013
 0.887750E-013
 0.887593E-013
 0.887453E-013
 0.887330E-013
 0.887224E-013
 0.887135E-013
 0.887064E-013
 0.887010E-013
 0.886974E-013
 0.886956E-013
 0.886956E-013
 0.886974E-013
 0.887010E-013
 0.887064E-013
 0.887135E-013
 0.887224E-013
 0.887330E-013
 0.887453E-013
 0.887593E-013
 0.887750E-013
 0.887923E-013
 0.888113E-013
 0.888318E-013
 0.888538E-013
 0.888773E-013
 0.889022E-013
 0.889286E-013
 0.889563E-013
 0.889853E-013
 0.890156E-013
 0.890472E-013
 0.890799E-013
 0.891137E-013
 0.891486E-013
 0.891845E-013
 0.892214E-013
 0.892592E-013
 0.892980E-013
 0.893375E-013
 0.893779E-013
 0.894190E-013
 0.894608E-013
 0.895032E-013
 0.895463E-013
 0.895900E-013
 0.896343E-013
 0.896790E-013
 0.897242E-013
 0.897699E-013
 0.898160E-013
 0.898625E-013
 0.899093E-013
 0.899565E-013
 0.900040E-013
 0.900518E-013
 0.900999E-013
 0.901482E-013
 0.901968E-013
 0.902456E-013
 0.902946E-013
 0.903438E-013
 0.903932E-013
 0.904427E-013
 0.904925E-013
 0.905424E-013
 0.905924E-013
 0.906426E-013
 0.906931E-013
 0.907426E-013
 0.907981E-013
 0.908286E-013
 0.909491E-013
 0.908067E-013
 0.912740E-013
 0.915332E-013
 0.909491E-013
 0.912453E-013
 0.911667E-013
 0.912161E-013
 0.912294E-013
 0.912512E-013
 0.912712E-013
 0.912914E-013
 0.913115E-013
 0.913316E-013
 0.913516E-013
 0.913715E-013
 0.913914E-013
 0.914112E-013
 0.914309E-013
 0.914505E-013
 0.914700E-013
 0.914894E-013
 0.915087E-013
 0.915279E-013
 0.915470E-013
 0.915660E-013
 0.915848E-013
 0.916035E-013
 0.916220E-013
 0.916403E-013
 0.916585E-013
 0.916765E-013
 0.916942E-013
 0.917118E-013
 0.917291E-013
 0.917461E-013
 0.917629E-013
 0.917794E-013
 0.917956E-013
 0.918115E-013
 0.918270E-013
 0.918422E-013
 0.918570E-013
 0.918715E-013
 0.918855E-013
 0.918990E-013
 0.919122E-013
 0.919248E-013
 0.919370E-013
 0.919486E-013
 0.919598E-013
 0.919703E-013
 0.919804E-013
 0.919898E-013
 0.919986E-013
 0.920068E-013
 0.920144E-013
 0.920214E-013
 0.920277E-013
 0.920333E-013
 0.920383E-013
 0.920425E-013
 0.920461E-013
 0.920489E-013
 0.920511E-013
 0.920525E-013
 0.920532E-013
 0.920532E-013
 0.920525E-013
 0.920511E-013
 0.920489E-013
 0.920461E-013
 0.920425E-013
 0.920383E-013
 0.920333E-013
 0.920277E-013
 0.920214E-013
 0.920144E-013
 0.920068E-013
 0.919986E-013
 0.919898E-013
 0.919803E-013
 0.919703E-013
 0.919598E-013
 0.919486E-013
 0.919370E-013
 0.919248E-013
 0.919122E-013
 0.918990E-013
 0.918855E-013
 0.918714E-013
 0.918570E-013
 0.918422E-013
 0.918270E-013
 0.918115E-013
 0.917956E-013
 0.917794E-013
 0.917629E-013
 0.917461E-013
 0.917291E-013
 0.917118E-013
 0.916942E-013
 0.916765E-013
 0.916585E-013
 0.916403E-013
 0.916220E-013
 0.916035E-013
 0.915848E-013
 0.915660E-013
 0.915470E-013
 0.915279E-013
 0.915087E-013
 0.914894E-013
 0.914700E-013
 0.914505E-013
 0.914309E-013
 0.914112E-013
 0.913914E-013
 0.913715E-013
 0.913516E-013
 0.913316E-013
 0.913115E-013
 0.912914E-013
 0.912712E-013
 0.912512E-013
 0.912294E-013
 0.912161E-013
 0.911667E-013
 0.912453E-013
 0.909491E-013
 0.915332E-013
 0.915731E-013
 0.908285E-013
 0.911667E-013
 0.910348E-013
 0.910654E-013
 0.910498E-013
 0.910453E-013
 0.910386E-013
 0.910322E-013
 0.910259E-013
 0.910195E-013
 0.910132E-013
 0.910069E-013
 0.910007E-013
 0.909944E-013
 0.909882E-013
 0.909820E-013
 0.909758E-013
 0.909697E-013
 0.909636E-013
 0.909576E-013
 0.909515E-013
 0.909456E-013
 0.909396E-013
 0.909337E-013
 0.909279E-013
 0.909221E-013
 0.909164E-013
 0.909107E-013
 0.909051E-013
 0.908995E-013
 0.908941E-013
 0.908887E-013
 0.908834E-013
 0.908782E-013
 0.908731E-013
 0.908681E-013
 0.908632E-013
 0.908584E-013
 0.908537E-013
 0.908492E-013
 0.908448E-013
 0.908405E-013
 0.908363E-013
 0.908324E-013
 0.908285E-013
 0.908248E-013
 0.908213E-013
 0.908180E-013
 0.908148E-013
 0.908119E-013
 0.908091E-013
 0.908065E-013
 0.908041E-013
 0.908019E-013
 0.907999E-013
 0.907982E-013
 0.907966E-013
 0.907953E-013
 0.907941E-013
 0.907932E-013
 0.907926E-013
 0.907921E-013
 0.907919E-013
 0.907919E-013
 0.907921E-013
 0.907926E-013
 0.907932E-013
 0.907941E-013
 0.907953E-013
 0.907966E-013
 0.907982E-013
 0.907999E-013
 0.908019E-013
 0.908041E-013
 0.908065E-013
 0.908091E-013
 0.908119E-013
 0.908149E-013
 0.908180E-013
 0.908213E-013
 0.908248E-013
 0.908285E-013
 0.908324E-013
 0.908363E-013
 0.908405E-013
 0.908448E-013
 0.908492E-013
 0.908537E-013
 0.908584E-013
 0.908632E-013
 0.908681E-013
 0.908731E-013
 0.908782E-013
 0.908834E-013
 0.908887E-013
 0.908941E-013
 0.908996E-013
 0.909051E-013
 0.909107E-013
 0.909164E-013
 0.909221E-013
 0.909279E-013
 0.909337E-013
 0.909396E-013
 0.909456E-013
 0.909515E-013
 0.909576E-013
 0.909636E-013
 0.909697E-013
 0.909759E-013
 0.909820E-013
 0.909882E-013
 0.909944E-013
 0.910007E-013
 0.910069E-013
 0.910132E-013
 0.910195E-013
 0.910259E-013
 0.910322E-013
 0.910386E-013
 0.910453E-013
 0.910498E-013
 0.910654E-013
 0.910348E-013
 0.911667E-013
 0.908286E-013
 0.915731E-013
 0.916807E-013
 0.907981E-013
 0.912161E-013
 0.910654E-013
 0.911122E-013
 0.911027E-013
 0.911067E-013
 0.911079E-013
 0.911097E-013
 0.911113E-013
 0.911129E-013
 0.911146E-013
 0.911162E-013
 0.911178E-013
 0.911195E-013
 0.911211E-013
 0.911227E-013
 0.911243E-013
 0.911259E-013
 0.911274E-013
 0.911290E-013
 0.911306E-013
 0.911321E-013
 0.911337E-013
 0.911352E-013
 0.911367E-013
 0.911382E-013
 0.911397E-013
 0.911412E-013
 0.911426E-013
 0.911440E-013
 0.911455E-013
 0.911469E-013
 0.911482E-013
 0.911496E-013
 0.911509E-013
 0.911522E-013
 0.911535E-013
 0.911547E-013
 0.911559E-013
 0.911571E-013
 0.911583E-013
 0.911594E-013
 0.911605E-013
 0.911615E-013
 0.911625E-013
 0.911634E-013
 0.911644E-013
 0.911652E-013
 0.911660E-013
 0.911668E-013
 0.911675E-013
 0.911682E-013
 0.911688E-013
 0.911694E-013
 0.911699E-013
 0.911704E-013
 0.911708E-013
 0.911711E-013
 0.911714E-013
 0.911717E-013
 0.911718E-013
 0.911720E-013
 0.911720E-013
 0.911720E-013
 0.911720E-013
 0.911718E-013
 0.911717E-013
 0.911714E-013
 0.911711E-013
 0.911708E-013
 0.911704E-013
 0.911699E-013
 0.911694E-013
 0.911688E-013
 0.911682E-013
 0.911675E-013
 0.911668E-013
 0.911660E-013
 0.911652E-013
 0.911644E-013
 0.911634E-013
 0.911625E-013
 0.911615E-013
 0.911605E-013
 0.911594E-013
 0.911583E-013
 0.911571E-013
 0.911559E-013
 0.911547E-013
 0.911535E-013
 0.911522E-013
 0.911509E-013
 0.911496E-013
 0.911482E-013
 0.911469E-013
 0.911455E-013
 0.911440E-013
 0.911426E-013
 0.911412E-013
 0.911397E-013
 0.911382E-013
 0.911367E-013
 0.911352E-013
 0.911337E-013
 0.911321E-013
 0.911306E-013
 0.911290E-013
 0.911274E-013
 0.911259E-013
 0.911243E-013
 0.911227E-013
 0.911211E-013
 0.911195E-013
 0.911178E-013
 0.911162E-013
 0.911146E-013
 0.911129E-013
 0.911113E-013
 0.911097E-013
 0.911079E-013
 0.911067E-013
 0.911027E-013
 0.911122E-013
 0.910654E-013
 0.912161E-013
 0.907981E-013
 0.916807E-013
 0.917703E-013
 0.907425E-013
 0.912294E-013
 0.910498E-013
 0.911027E-013
 0.910891E-013
 0.910916E-013
 0.910907E-013
 0.910904E-013
 0.910900E-013
 0.910897E-013
 0.910893E-013
 0.910889E-013
 0.910886E-013
 0.910882E-013
 0.910879E-013
 0.910875E-013
 0.910872E-013
 0.910868E-013
 0.910865E-013
 0.910862E-013
 0.910858E-013
 0.910855E-013
 0.910851E-013
 0.910848E-013
 0.910845E-013
 0.910841E-013
 0.910838E-013
 0.910835E-013
 0.910832E-013
 0.910829E-013
 0.910826E-013
 0.910823E-013
 0.910820E-013
 0.910817E-013
 0.910814E-013
 0.910811E-013
 0.910808E-013
 0.910806E-013
 0.910803E-013
 0.910801E-013
 0.910798E-013
 0.910796E-013
 0.910793E-013
 0.910791E-013
 0.910789E-013
 0.910787E-013
 0.910785E-013
 0.910783E-013
 0.910782E-013
 0.910780E-013
 0.910778E-013
 0.910777E-013
 0.910776E-013
 0.910774E-013
 0.910773E-013
 0.910772E-013
 0.910772E-013
 0.910771E-013
 0.910770E-013
 0.910770E-013
 0.910769E-013
 0.910769E-013
 0.910769E-013
 0.910769E-013
 0.910769E-013
 0.910769E-013
 0.910770E-013
 0.910770E-013
 0.910771E-013
 0.910772E-013
 0.910772E-013
 0.910773E-013
 0.910774E-013
 0.910776E-013
 0.910777E-013
 0.910778E-013
 0.910780E-013
 0.910782E-013
 0.910783E-013
 0.910785E-013
 0.910787E-013
 0.910789E-013
 0.910791E-013
 0.910793E-013
 0.910796E-013
 0.910798E-013
 0.910801E-013
 0.910803E-013
 0.910806E-013
 0.910808E-013
 0.910811E-013
 0.910814E-013
 0.910817E-013
 0.910820E-013
 0.910823E-013
 0.910826E-013
 0.910829E-013
 0.910832E-013
 0.910835E-013
 0.910838E-013
 0.910841E-013
 0.910845E-013
 0.910848E-013
 0.910851E-013
 0.910855E-013
 0.910858E-013
 0.910862E-013
 0.910865E-013
 0.910868E-013
 0.910872E-013
 0.910875E-013
 0.910879E-013
 0.910882E-013
 0.910886E-013
 0.910890E-013
 0.910893E-013
 0.910897E-013
 0.910900E-013
 0.910904E-013
 0.910907E-013
 0.910916E-013
 0.910891E-013
 0.911027E-013
 0.910498E-013
 0.912294E-013
 0.907426E-013
 0.917703E-013
 0.918636E-013
 0.906931E-013
 0.912512E-013
 0.910453E-013
 0.911067E-013
 0.910916E-013
 0.910949E-013
 0.910943E-013
 0.910945E-013
 0.910946E-013
 0.910946E-013
 0.910947E-013
 0.910948E-013
 0.910948E-013
 0.910949E-013
 0.910950E-013
 0.910950E-013
 0.910951E-013
 0.910952E-013
 0.910952E-013
 0.910953E-013
 0.910954E-013
 0.910954E-013
 0.910955E-013
 0.910956E-013
 0.910956E-013
 0.910957E-013
 0.910957E-013
 0.910958E-013
 0.910959E-013
 0.910959E-013
 0.910960E-013
 0.910961E-013
 0.910961E-013
 0.910962E-013
 0.910962E-013
 0.910963E-013
 0.910964E-013
 0.910964E-013
 0.910965E-013
 0.910965E-013
 0.910966E-013
 0.910966E-013
 0.910967E-013
 0.910967E-013
 0.910968E-013
 0.910968E-013
 0.910969E-013
 0.910969E-013
 0.910969E-013
 0.910970E-013
 0.910970E-013
 0.910970E-013
 0.910971E-013
 0.910971E-013
 0.910971E-013
 0.910971E-013
 0.910972E-013
 0.910972E-013
 0.910972E-013
 0.910972E-013
 0.910972E-013
 0.910972E-013
 0.910972E-013
 0.910972E-013
 0.910972E-013
 0.910972E-013
 0.910972E-013
 0.910972E-013
 0.910972E-013
 0.910972E-013
 0.910971E-013
 0.910971E-013
 0.910971E-013
 0.910971E-013
 0.910970E-013
 0.910970E-013
 0.910970E-013
 0.910969E-013
 0.910969E-013
 0.910969E-013
 0.910968E-013
 0.910968E-013
 0.910967E-013
 0.910967E-013
 0.910966E-013
 0.910966E-013
 0.910965E-013
 0.910965E-013
 0.910964E-013
 0.910964E-013
 0.910963E-013
 0.910962E-013
 0.910962E-013
 0.910961E-013
 0.910961E-013
 0.910960E-013
 0.910959E-013
 0.910959E-013
 0.910958E-013
 0.910957E-013
 0.910957E-013
 0.910956E-013
 0.910956E-013
 0.910955E-013
 0.910954E-013
 0.910954E-013
 0.910953E-013
 0.910952E-013
 0.910952E-013
 0.910951E-013
 0.910950E-013
 0.910950E-013
 0.910949E-013
 0.910948E-013
 0.910948E-013
 0.910947E-013
 0.910946E-013
 0.910946E-013
 0.910945E-013
 0.910943E-013
 0.910949E-013
 0.910916E-013
 0.911067E-013
 0.910453E-013
 0.912512E-013
 0.906931E-013
 0.918636E-013
 0.919559E-013
 0.906426E-013
 0.912712E-013
 0.910386E-013
 0.911079E-013
 0.910907E-013
 0.910943E-013
 0.910936E-013
 0.910937E-013
 0.910937E-013
 0.910937E-013
 0.910937E-013
 0.910937E-013
 0.910937E-013
 0.910937E-013
 0.910936E-013
 0.910936E-013
 0.910936E-013
 0.910936E-013
 0.910936E-013
 0.910936E-013
 0.910936E-013
 0.910936E-013
 0.910936E-013
 0.910936E-013
 0.910936E-013
 0.910935E-013
 0.910935E-013
 0.910935E-013
 0.910935E-013
 0.910935E-013
 0.910935E-013
 0.910935E-013
 0.910935E-013
 0.910935E-013
 0.910935E-013
 0.910935E-013
 0.910935E-013
 0.910935E-013
 0.910935E-013
 0.910935E-013
 0.910935E-013
 0.910935E-013
 0.910935E-013
 0.910935E-013
 0.910935E-013
 0.910935E-013
 0.910935E-013
 0.910935E-013
 0.910935E-013
 0.910935E-013
 0.910935E-013
 0.910935E-013
 0.910935E-013
 0.910935E-013
 0.910935E-013
 0.910935E-013
 0.910935E-013
 0.910935E-013
 0.910935E-013
 0.910935E-013
 0.910935E-013
 0.910935E-013
 0.910935E-013
 0.910935E-013
 0.910935E-013
 0.910935E-013
 0.910935E-013
 0.910935E-013
 0.910935E-013
 0.910935E-013
 0.910935E-013
 0.910935E-013
 0.910935E-013
 0.910935E-013
 0.910935E-013
 0.910935E-013
 0.910935E-013
 0.910935E-013
 0.910935E-013
 0.910935E-013
 0.910935E-013
 0.910935E-013
 0.910935E-013
 0.910935E-013
 0.910935E-013
 0.910935E-013
 0.910935E-013
 0.910935E-013
 0.910935E-013
 0.910935E-013
 0.910935E-013
 0.910935E-013
 0.910935E-013
 0.910935E-013
 0.910935E-013
 0.910935E-013
 0.910935E-013
 0.910935E-013
 0.910935E-013
 0.910935E-013
 0.910935E-013
 0.910936E-013
 0.910936E-013
 0.910936E-013
 0.910936E-013
 0.910936E-013
 0.910936E-013
 0.910936E-013
 0.910936E-013
 0.910936E-013
 0.910936E-013
 0.910936E-013
 0.910937E-013
 0.910937E-013
 0.910937E-013
 0.910937E-013
 0.910937E-013
 0.910937E-013
 0.910937E-013
 0.910936E-013
 0.910943E-013
 0.910907E-013
 0.911079E-013
 0.910386E-013
 0.912712E-013
 0.906426E-013
 0.919559E-013
 0.920480E-013
 0.905924E-013
 0.912914E-013
 0.910322E-013
 0.911097E-013
 0.910904E-013
 0.910945E-013
 0.910937E-013
 0.910939E-013
 0.910938E-013
 0.910939E-013
 0.910939E-013
 0.910939E-013
 0.910939E-013
 0.910939E-013
 0.910939E-013
 0.910939E-013
 0.910939E-013
 0.910939E-013
 0.910939E-013
 0.910939E-013
 0.910939E-013
 0.910939E-013
 0.910939E-013
 0.910939E-013
 0.910939E-013
 0.910939E-013
 0.910939E-013
 0.910939E-013
 0.910939E-013
 0.910939E-013
 0.910939E-013
 0.910939E-013
 0.910939E-013
 0.910939E-013
 0.910940E-013
 0.910940E-013
 0.910940E-013
 0.910940E-013
 0.910940E-013
 0.910940E-013
 0.910940E-013
 0.910940E-013
 0.910940E-013
 0.910940E-013
 0.910940E-013
 0.910940E-013
 0.910941E-013
 0.910941E-013
 0.910941E-013
 0.910941E-013
 0.910941E-013
 0.910941E-013
 0.910941E-013
 0.910941E-013
 0.910941E-013
 0.910941E-013
 0.910941E-013
 0.910941E-013
 0.910941E-013
 0.910941E-013
 0.910941E-013
 0.910941E-013
 0.910941E-013
 0.910941E-013
 0.910941E-013
 0.910941E-013
 0.910941E-013
 0.910941E-013
 0.910941E-013
 0.910941E-013
 0.910941E-013
 0.910941E-013
 0.910941E-013
 0.910941E-013
 0.910941E-013
 0.910941E-013
 0.910941E-013
 0.910941E-013
 0.910941E-013
 0.910941E-013
 0.910940E-013
 0.910940E-013
 0.910940E-013
 0.910940E-013
 0.910940E-013
 0.910940E-013
 0.910940E-013
 0.910940E-013
 0.910940E-013
 0.910940E-013
 0.910940E-013
 0.910940E-013
 0.910939E-013
 0.910939E-013
 0.910939E-013
 0.910939E-013
 0.910939E-013
 0.910939E-013
 0.910939E-013
 0.910939E-013
 0.910939E-013
 0.910939E-013
 0.910939E-013
 0.910939E-013
 0.910939E-013
 0.910939E-013
 0.910939E-013
 0.910939E-013
 0.910939E-013
 0.910939E-013
 0.910939E-013
 0.910939E-013
 0.910939E-013
 0.910939E-013
 0.910939E-013
 0.910939E-013
 0.910939E-013
 0.910939E-013
 0.910939E-013
 0.910937E-013
 0.910945E-013
 0.910904E-013
 0.911097E-013
 0.910323E-013
 0.912914E-013
 0.905924E-013
 0.920480E-013
 0.921399E-013
 0.905423E-013
 0.913115E-013
 0.910259E-013
 0.911113E-013
 0.910900E-013
 0.910946E-013
 0.910937E-013
 0.910938E-013
 0.910938E-013
 0.910938E-013
 0.910938E-013
 0.910938E-013
 0.910938E-013
 0.910938E-013
 0.910938E-013
 0.910938E-013
 0.910938E-013
 0.910938E-013
 0.910938E-013
 0.910938E-013
 0.910938E-013
 0.910938E-013
 0.910938E-013
 0.910938E-013
 0.910939E-013
 0.910939E-013
 0.910939E-013
 0.910939E-013
 0.910939E-013
 0.910939E-013
 0.910939E-013
 0.910939E-013
 0.910939E-013
 0.910939E-013
 0.910939E-013
 0.910939E-013
 0.910939E-013
 0.910939E-013
 0.910939E-013
 0.910939E-013
 0.910939E-013
 0.910940E-013
 0.910940E-013
 0.910940E-013
 0.910940E-013
 0.910940E-013
 0.910940E-013
 0.910940E-013
 0.910940E-013
 0.910940E-013
 0.910940E-013
 0.910940E-013
 0.910941E-013
 0.910941E-013
 0.910941E-013
 0.910941E-013
 0.910941E-013
 0.910941E-013
 0.910941E-013
 0.910941E-013
 0.910941E-013
 0.910941E-013
 0.910941E-013
 0.910941E-013
 0.910941E-013
 0.910941E-013
 0.910941E-013
 0.910941E-013
 0.910941E-013
 0.910941E-013
 0.910941E-013
 0.910941E-013
 0.910941E-013
 0.910941E-013
 0.910940E-013
 0.910940E-013
 0.910940E-013
 0.910940E-013
 0.910940E-013
 0.910940E-013
 0.910940E-013
 0.910940E-013
 0.910940E-013
 0.910940E-013
 0.910940E-013
 0.910939E-013
 0.910939E-013
 0.910939E-013
 0.910939E-013
 0.910939E-013
 0.910939E-013
 0.910939E-013
 0.910939E-013
 0.910939E-013
 0.910939E-013
 0.910939E-013
 0.910939E-013
 0.910939E-013
 0.910939E-013
 0.910939E-013
 0.910939E-013
 0.910939E-013
 0.910938E-013
 0.910938E-013
 0.910938E-013
 0.910938E-013
 0.910938E-013
 0.910938E-013
 0.910938E-013
 0.910938E-013
 0.910938E-013
 0.910938E-013
 0.910938E-013
 0.910938E-013
 0.910938E-013
 0.910938E-013
 0.910938E-013
 0.910938E-013
 0.910939E-013
 0.910937E-013
 0.910946E-013
 0.910900E-013
 0.911113E-013
 0.910259E-013
 0.913115E-013
 0.905424E-013
 0.921399E-013
 0.922315E-013
 0.904924E-013
 0.913316E-013
 0.910195E-013
 0.911129E-013
 0.910897E-013
 0.910946E-013
 0.910937E-013
 0.910939E-013
 0.910938E-013
 0.910938E-013
 0.910938E-013
 0.910938E-013
 0.910938E-013
 0.910938E-013
 0.910938E-013
 0.910938E-013
 0.910938E-013
 0.910938E-013
 0.910938E-013
 0.910938E-013
 0.910938E-013
 0.910939E-013
 0.910939E-013
 0.910939E-013
 0.910939E-013
 0.910939E-013
 0.910939E-013
 0.910939E-013
 0.910939E-013
 0.910939E-013
 0.910939E-013
 0.910939E-013
 0.910939E-013
 0.910939E-013
 0.910939E-013
 0.910939E-013
 0.910939E-013
 0.910939E-013
 0.910940E-013
 0.910940E-013
 0.910940E-013
 0.910940E-013
 0.910940E-013
 0.910940E-013
 0.910940E-013
 0.910940E-013
 0.910940E-013
 0.910941E-013