# vtk DataFile Version 3.0
Solution data
ASCII
DATASET STRUCTURED_GRID
DIMENSIONS 128 128 1
POINTS 16384  double
      0.000004      0.000004      0.000000
      0.000012      0.000004      0.000000
      0.000020      0.000004      0.000000
      0.000027      0.000004      0.000000
      0.000035      0.000004      0.000000
      0.000043      0.000004      0.000000
      0.000051      0.000004      0.000000
      0.000059      0.000004      0.000000
      0.000066      0.000004      0.000000
      0.000074      0.000004      0.000000
      0.000082      0.000004      0.000000
      0.000090      0.000004      0.000000
      0.000098      0.000004      0.000000
      0.000105      0.000004      0.000000
      0.000113      0.000004      0.000000
      0.000121      0.000004      0.000000
      0.000129      0.000004      0.000000
      0.000137      0.000004      0.000000
      0.000145      0.000004      0.000000
      0.000152      0.000004      0.000000
      0.000160      0.000004      0.000000
      0.000168      0.000004      0.000000
      0.000176      0.000004      0.000000
      0.000184      0.000004      0.000000
      0.000191      0.000004      0.000000
      0.000199      0.000004      0.000000
      0.000207      0.000004      0.000000
      0.000215      0.000004      0.000000
      0.000223      0.000004      0.000000
      0.000230      0.000004      0.000000
      0.000238      0.000004      0.000000
      0.000246      0.000004      0.000000
      0.000254      0.000004      0.000000
      0.000262      0.000004      0.000000
      0.000270      0.000004      0.000000
      0.000277      0.000004      0.000000
      0.000285      0.000004      0.000000
      0.000293      0.000004      0.000000
      0.000301      0.000004      0.000000
      0.000309      0.000004      0.000000
      0.000316      0.000004      0.000000
      0.000324      0.000004      0.000000
      0.000332      0.000004      0.000000
      0.000340      0.000004      0.000000
      0.000348      0.000004      0.000000
      0.000355      0.000004      0.000000
      0.000363      0.000004      0.000000
      0.000371      0.000004      0.000000
      0.000379      0.000004      0.000000
      0.000387      0.000004      0.000000
      0.000395      0.000004      0.000000
      0.000402      0.000004      0.000000
      0.000410      0.000004      0.000000
      0.000418      0.000004      0.000000
      0.000426      0.000004      0.000000
      0.000434      0.000004      0.000000
      0.000441      0.000004      0.000000
      0.000449      0.000004      0.000000
      0.000457      0.000004      0.000000
      0.000465      0.000004      0.000000
      0.000473      0.000004      0.000000
      0.000480      0.000004      0.000000
      0.000488      0.000004      0.000000
      0.000496      0.000004      0.000000
      0.000504      0.000004      0.000000
      0.000512      0.000004      0.000000
      0.000520      0.000004      0.000000
      0.000527      0.000004      0.000000
      0.000535      0.000004      0.000000
      0.000543      0.000004      0.000000
      0.000551      0.000004      0.000000
      0.000559      0.000004      0.000000
      0.000566      0.000004      0.000000
      0.000574      0.000004      0.000000
      0.000582      0.000004      0.000000
      0.000590      0.000004      0.000000
      0.000598      0.000004      0.000000
      0.000605      0.000004      0.000000
      0.000613      0.000004      0.000000
      0.000621      0.000004      0.000000
      0.000629      0.000004      0.000000
      0.000637      0.000004      0.000000
      0.000645      0.000004      0.000000
      0.000652      0.000004      0.000000
      0.000660      0.000004      0.000000
      0.000668      0.000004      0.000000
      0.000676      0.000004      0.000000
      0.000684      0.000004      0.000000
      0.000691      0.000004      0.000000
      0.000699      0.000004      0.000000
      0.000707      0.000004      0.000000
      0.000715      0.000004      0.000000
      0.000723      0.000004      0.000000
      0.000730      0.000004      0.000000
      0.000738      0.000004      0.000000
      0.000746      0.000004      0.000000
      0.000754      0.000004      0.000000
      0.000762      0.000004      0.000000
      0.000770      0.000004      0.000000
      0.000777      0.000004      0.000000
      0.000785      0.000004      0.000000
      0.000793      0.000004      0.000000
      0.000801      0.000004      0.000000
      0.000809      0.000004      0.000000
      0.000816      0.000004      0.000000
      0.000824      0.000004      0.000000
      0.000832      0.000004      0.000000
      0.000840      0.000004      0.000000
      0.000848      0.000004      0.000000
      0.000855      0.000004      0.000000
      0.000863      0.000004      0.000000
      0.000871      0.000004      0.000000
      0.000879      0.000004      0.000000
      0.000887      0.000004      0.000000
      0.000895      0.000004      0.000000
      0.000902      0.000004      0.000000
      0.000910      0.000004      0.000000
      0.000918      0.000004      0.000000
      0.000926      0.000004      0.000000
      0.000934      0.000004      0.000000
      0.000941      0.000004      0.000000
      0.000949      0.000004      0.000000
      0.000957      0.000004      0.000000
      0.000965      0.000004      0.000000
      0.000973      0.000004      0.000000
      0.000980      0.000004      0.000000
      0.000988      0.000004      0.000000
      0.000996      0.000004      0.000000
      0.000004      0.000012      0.000000
      0.000012      0.000012      0.000000
      0.000020      0.000012      0.000000
      0.000027      0.000012      0.000000
      0.000035      0.000012      0.000000
      0.000043      0.000012      0.000000
      0.000051      0.000012      0.000000
      0.000059      0.000012      0.000000
      0.000066      0.000012      0.000000
      0.000074      0.000012      0.000000
      0.000082      0.000012      0.000000
      0.000090      0.000012      0.000000
      0.000098      0.000012      0.000000
      0.000105      0.000012      0.000000
      0.000113      0.000012      0.000000
      0.000121      0.000012      0.000000
      0.000129      0.000012      0.000000
      0.000137      0.000012      0.000000
      0.000145      0.000012      0.000000
      0.000152      0.000012      0.000000
      0.000160      0.000012      0.000000
      0.000168      0.000012      0.000000
      0.000176      0.000012      0.000000
      0.000184      0.000012      0.000000
      0.000191      0.000012      0.000000
      0.000199      0.000012      0.000000
      0.000207      0.000012      0.000000
      0.000215      0.000012      0.000000
      0.000223      0.000012      0.000000
      0.000230      0.000012      0.000000
      0.000238      0.000012      0.000000
      0.000246      0.000012      0.000000
      0.000254      0.000012      0.000000
      0.000262      0.000012      0.000000
      0.000270      0.000012      0.000000
      0.000277      0.000012      0.000000
      0.000285      0.000012      0.000000
      0.000293      0.000012      0.000000
      0.000301      0.000012      0.000000
      0.000309      0.000012      0.000000
      0.000316      0.000012      0.000000
      0.000324      0.000012      0.000000
      0.000332      0.000012      0.000000
      0.000340      0.000012      0.000000
      0.000348      0.000012      0.000000
      0.000355      0.000012      0.000000
      0.000363      0.000012      0.000000
      0.000371      0.000012      0.000000
      0.000379      0.000012      0.000000
      0.000387      0.000012      0.000000
      0.000395      0.000012      0.000000
      0.000402      0.000012      0.000000
      0.000410      0.000012      0.000000
      0.000418      0.000012      0.000000
      0.000426      0.000012      0.000000
      0.000434      0.000012      0.000000
      0.000441      0.000012      0.000000
      0.000449      0.000012      0.000000
      0.000457      0.000012      0.000000
      0.000465      0.000012      0.000000
      0.000473      0.000012      0.000000
      0.000480      0.000012      0.000000
      0.000488      0.000012      0.000000
      0.000496      0.000012      0.000000
      0.000504      0.000012      0.000000
      0.000512      0.000012      0.000000
      0.000520      0.000012      0.000000
      0.000527      0.000012      0.000000
      0.000535      0.000012      0.000000
      0.000543      0.000012      0.000000
      0.000551      0.000012      0.000000
      0.000559      0.000012      0.000000
      0.000566      0.000012      0.000000
      0.000574      0.000012      0.000000
      0.000582      0.000012      0.000000
      0.000590      0.000012      0.000000
      0.000598      0.000012      0.000000
      0.000605      0.000012      0.000000
      0.000613      0.000012      0.000000
      0.000621      0.000012      0.000000
      0.000629      0.000012      0.000000
      0.000637      0.000012      0.000000
      0.000645      0.000012      0.000000
      0.000652      0.000012      0.000000
      0.000660      0.000012      0.000000
      0.000668      0.000012      0.000000
      0.000676      0.000012      0.000000
      0.000684      0.000012      0.000000
      0.000691      0.000012      0.000000
      0.000699      0.000012      0.000000
      0.000707      0.000012      0.000000
      0.000715      0.000012      0.000000
      0.000723      0.000012      0.000000
      0.000730      0.000012      0.000000
      0.000738      0.000012      0.000000
      0.000746      0.000012      0.000000
      0.000754      0.000012      0.000000
      0.000762      0.000012      0.000000
      0.000770      0.000012      0.000000
      0.000777      0.000012      0.000000
      0.000785      0.000012      0.000000
[...]
POINT_DATA 16384
SCALARS rhoe double
LOOKUP_TABLE default
 0.916834E-013
 0.911943E-013
 0.915580E-013
 0.915082E-013
 0.916336E-013
 0.916933E-013
 0.917745E-013
 0.918491E-013
 0.919252E-013
 0.920006E-013
 0.920759E-013
 0.921509E-013
 0.922257E-013
 0.923001E-013
 0.923743E-013
 0.924482E-013
 0.925217E-013
 0.925948E-013
 0.926675E-013
 0.927398E-013
 0.928117E-013
 0.928831E-013
 0.929540E-013
 0.930243E-013
 0.930940E-013
 0.931632E-013
 0.932316E-013
 0.932994E-013
 0.933664E-013
 0.934325E-013
 0.934979E-013
 0.935623E-013
 0.936257E-013
 0.936881E-013
 0.937495E-013
 0.938096E-013
 0.938686E-013
 0.939263E-013
 0.939826E-013
 0.940375E-013
 0.940909E-013
 0.941427E-013
 0.941930E-013
 0.942415E-013
 0.942883E-013
 0.943332E-013
 0.943763E-013
 0.944174E-013
 0.944564E-013
 0.944934E-013
 0.945281E-013
 0.945607E-013
 0.945910E-013
 0.946190E-013
 0.946446E-013
 0.946678E-013
 0.946885E-013
 0.947067E-013
 0.947224E-013
 0.947355E-013
 0.947460E-013
 0.947539E-013
 0.947592E-013
 0.947618E-013
 0.947618E-013
 0.947592E-013
 0.947539E-013
 0.947460E-013
 0.947355E-013
 0.947224E-013
 0.947067E-013
 0.946885E-013
 0.946678E-013
 0.946446E-013
 0.946190E-013
 0.945910E-013
 0.945607E-013
 0.945282E-013
 0.944934E-013
 0.944564E-013
 0.944174E-013
 0.943763E-013
 0.943333E-013
 0.942883E-013
 0.942415E-013
 0.941930E-013
 0.941428E-013
 0.940909E-013
 0.940375E-013
 0.939826E-013
 0.939263E-013
 0.938686E-013
 0.938096E-013
 0.937495E-013
 0.936882E-013
 0.936257E-013
 0.935623E-013
 0.934979E-013
 0.934326E-013
 0.933664E-013
 0.932994E-013
 0.932316E-013
 0.931632E-013
 0.930940E-013
 0.930243E-013
 0.929540E-013
 0.928831E-013
 0.928117E-013
 0.927398E-013
 0.926675E-013
 0.925948E-013
 0.925217E-013
 0.924482E-013
 0.923743E-013
 0.923002E-013
 0.922257E-013
 0.921509E-013
 0.920759E-013
 0.920006E-013
 0.919252E-013
 0.918491E-013
 0.917745E-013
 0.916933E-013
 0.916336E-013
 0.915082E-013
 0.915580E-013
 0.911943E-013
 0.916834E-013
 0.911943E-013
 0.907513E-013
 0.909421E-013
 0.907616E-013
 0.907619E-013
 0.906877E-013
 0.906403E-013
 0.905846E-013
 0.905315E-013
 0.904779E-013
 0.904246E-013
 0.903715E-013
 0.903185E-013
 0.902658E-013
 0.902133E-013
 0.901610E-013
 0.901090E-013
 0.900573E-013
 0.900058E-013
 0.899546E-013
 0.899037E-013
 0.898532E-013
 0.898030E-013
 0.897532E-013
 0.897038E-013
 0.896548E-013
 0.896063E-013
 0.895583E-013
 0.895109E-013
 0.894640E-013
 0.894177E-013
 0.893720E-013
 0.893270E-013
 0.892828E-013
 0.892393E-013
 0.891966E-013
 0.891548E-013
 0.891139E-013
 0.890740E-013
 0.890350E-013
 0.889971E-013
 0.889603E-013
 0.889247E-013
 0.888902E-013
 0.888570E-013
 0.888251E-013
 0.887945E-013
 0.887653E-013
 0.887376E-013
 0.887114E-013
 0.886867E-013
 0.886635E-013
 0.886420E-013
 0.886221E-013
 0.886039E-013
 0.885875E-013
 0.885727E-013
 0.885598E-013
 0.885487E-013
 0.885393E-013
 0.885319E-013
 0.885262E-013
 0.885225E-013
 0.885206E-013
 0.885206E-013
 0.885225E-013
 0.885262E-013
 0.885319E-013
 0.885393E-013
 0.885487E-013
 0.885598E-013
 0.885727E-013
 0.885875E-013
 0.886039E-013
 0.886221E-013
 0.886420E-013
 0.886635E-013
 0.886867E-013
 0.887114E-013
 0.887376E-013
 0.887653E-013
 0.887945E-013
 0.888251E-013
 0.888570E-013
 0.888902E-013
 0.889247E-013
 0.889603E-013
 0.889971E-013
 0.890350E-013
 0.890740E-013
 0.891139E-013
 0.891548E-013
 0.891966E-013
 0.892393E-013
 0.892828E-013
 0.893270E-013
 0.893720E-013
 0.894177E-013
 0.894640E-013
 0.895109E-013
 0.895583E-013
 0.896063E-013
 0.896548E-013
 0.897038E-013
 0.897532E-013
 0.898030E-013
 0.898532E-013
 0.899037E-013
 0.899546E-013
 0.900058E-013
 0.900573E-013
 0.901090E-013
 0.901611E-013
 0.902133E-013
 0.902658E-013
 0.903186E-013
 0.903715E-013
 0.904246E-013
 0.904779E-013
 0.905315E-013
 0.905846E-013
 0.906403E-013
 0.906877E-013
 0.907619E-013
 0.907616E-013
 0.909421E-013
 0.907513E-013
 0.911943E-013
 0.915580E-013
 0.909421E-013
 0.913494E-013
 0.911939E-013
 0.913038E-013
 0.913053E-013
 0.913454E-013
 0.913732E-013
 0.914044E-013
 0.914346E-013
 0.914649E-013
 0.914951E-013
 0.915251E-013
 0.915550E-013
 0.915848E-013
 0.916145E-013
 0.916440E-013
 0.916734E-013
 0.917026E-013
 0.917317E-013
 0.917605E-013
 0.917892E-013
 0.918177E-013
 0.918460E-013
 0.918740E-013
 0.919018E-013
 0.919294E-013
 0.919566E-013
 0.919836E-013
 0.920102E-013
 0.920365E-013
 0.920624E-013
 0.920880E-013
 0.921131E-013
 0.921378E-013
 0.921621E-013
 0.921858E-013
 0.922091E-013
 0.922318E-013
 0.922539E-013
 0.922755E-013
 0.922964E-013
 0.923166E-013
 0.923362E-013
 0.923551E-013
 0.923733E-013
 0.923906E-013
 0.924072E-013
 0.924230E-013
 0.924379E-013
 0.924520E-013
 0.924651E-013
 0.924774E-013
 0.924887E-013
 0.924990E-013
 0.925084E-013
 0.925168E-013
 0.925242E-013
 0.925305E-013
 0.925358E-013
 0.925400E-013
 0.925432E-013
 0.925454E-013
 0.925464E-013
 0.925464E-013
 0.925454E-013
 0.925432E-013
 0.925400E-013
 0.925358E-013
 0.925305E-013
 0.925242E-013
 0.925168E-013
 0.925084E-013
 0.924990E-013
 0.924887E-013
 0.924774E-013
 0.924651E-013
 0.924520E-013
 0.924379E-013
 0.924230E-013
 0.924072E-013
 0.923906E-013
 0.923733E-013
 0.923551E-013
 0.923362E-013
 0.923166E-013
 0.922964E-013
 0.922754E-013
 0.922539E-013
 0.922318E-013
 0.922091E-013
 0.921858E-013
 0.921621E-013
 0.921378E-013
 0.921131E-013
 0.920880E-013
 0.920624E-013
 0.920365E-013
 0.920102E-013
 0.919836E-013
 0.919566E-013
 0.919294E-013
 0.919018E-013
 0.918740E-013
 0.918460E-013
 0.918177E-013
 0.917892E-013
 0.917605E-013
 0.917316E-013
 0.917026E-013
 0.916734E-013
 0.916440E-013
 0.916145E-013
 0.915848E-013
 0.915550E-013
 0.915251E-013
 0.914951E-013
 0.914649E-013
 0.914346E-013
 0.914044E-013
 0.913732E-013
 0.913454E-013
 0.913053E-013
 0.913038E-013
 0.911939E-013
 0.913494E-013
 0.909421E-013
 0.915580E-013
 0.915082E-013
 0.907616E-013
 0.911939E-013
 0.909521E-013
 0.910358E-013
 0.909849E-013
 0.909824E-013
 0.909646E-013
 0.909512E-013
 0.909368E-013
 0.909226E-013
 0.909085E-013
 0.908944E-013
 0.908804E-013
 0.908664E-013
 0.908525E-013
 0.908386E-013
 0.908249E-013
 0.908111E-013
 0.907975E-013
 0.907840E-013
 0.907705E-013
 0.907572E-013
 0.907439E-013
 0.907307E-013
 0.907177E-013
 0.907048E-013
 0.906920E-013
 0.906794E-013
 0.906669E-013
 0.906545E-013
 0.906424E-013
 0.906304E-013
 0.906186E-013
 0.906070E-013
 0.905956E-013
 0.905845E-013
 0.905736E-013
 0.905629E-013
 0.905525E-013
 0.905424E-013
 0.905326E-013
 0.905231E-013
 0.905139E-013
 0.905050E-013
 0.904965E-013
 0.904884E-013
 0.904806E-013
 0.904732E-013
 0.904662E-013
 0.904596E-013
 0.904534E-013
 0.904476E-013
 0.904423E-013
 0.904375E-013
 0.904331E-013
 0.904291E-013
 0.904257E-013
 0.904227E-013
 0.904202E-013
 0.904182E-013
 0.904167E-013
 0.904157E-013
 0.904152E-013
 0.904152E-013
 0.904157E-013
 0.904167E-013
 0.904182E-013
 0.904202E-013
 0.904227E-013
 0.904257E-013
 0.904291E-013
 0.904331E-013
 0.904375E-013
 0.904423E-013
 0.904476E-013
 0.904534E-013
 0.904596E-013
 0.904662E-013
 0.904732E-013
 0.904806E-013
 0.904884E-013
 0.904965E-013
 0.905050E-013
 0.905139E-013
 0.905231E-013
 0.905326E-013
 0.905424E-013
 0.905525E-013
 0.905629E-013
 0.905736E-013
 0.905845E-013
 0.905956E-013
 0.906070E-013
 0.906186E-013
 0.906304E-013
 0.906424E-013
 0.906545E-013
 0.906669E-013
 0.906794E-013
 0.906920E-013
 0.907048E-013
 0.907177E-013
 0.907308E-013
 0.907439E-013
 0.907572E-013
 0.907705E-013
 0.907840E-013
 0.907975E-013
 0.908112E-013
 0.908249E-013
 0.908386E-013
 0.908525E-013
 0.908664E-013
 0.908804E-013
 0.908944E-013
 0.909085E-013
 0.909226E-013
 0.909368E-013
 0.909512E-013
 0.909646E-013
 0.909824E-013
 0.909849E-013
 0.910358E-013
 0.909521E-013
 0.911939E-013
 0.907616E-013
 0.915082E-013
 0.916336E-013
 0.907619E-013
 0.913038E-013
 0.910358E-013
 0.911601E-013
 0.911215E-013
 0.911417E-013
 0.911432E-013
 0.911500E-013
 0.911554E-013
 0.911610E-013
 0.911667E-013
 0.911722E-013
 0.911778E-013
 0.911834E-013
 0.911889E-013
 0.911944E-013
 0.911999E-013
 0.912053E-013
 0.912107E-013
 0.912161E-013
 0.912214E-013
 0.912267E-013
 0.912320E-013
 0.912372E-013
 0.912424E-013
 0.912475E-013
 0.912526E-013
 0.912576E-013
 0.912626E-013
 0.912675E-013
 0.912723E-013
 0.912771E-013
 0.912817E-013
 0.912863E-013
 0.912908E-013
 0.912953E-013
 0.912996E-013
 0.913038E-013
 0.913080E-013
 0.913120E-013
 0.913159E-013
 0.913196E-013
 0.913233E-013
 0.913268E-013
 0.913302E-013
 0.913334E-013
 0.913365E-013
 0.913395E-013
 0.913423E-013
 0.913449E-013
 0.913473E-013
 0.913496E-013
 0.913517E-013
 0.913537E-013
 0.913554E-013
 0.913570E-013
 0.913583E-013
 0.913595E-013
 0.913605E-013
 0.913613E-013
 0.913619E-013
 0.913623E-013
 0.913625E-013
 0.913625E-013
 0.913623E-013
 0.913619E-013
 0.913613E-013
 0.913605E-013
 0.913595E-013
 0.913583E-013
 0.913570E-013
 0.913554E-013
 0.913537E-013
 0.913517E-013
 0.913496E-013
 0.913473E-013
 0.913449E-013
 0.913423E-013
 0.913395E-013
 0.913365E-013
 0.913334E-013
 0.913302E-013
 0.913268E-013
 0.913233E-013
 0.913196E-013
 0.913159E-013
 0.913120E-013
 0.913080E-013
 0.913038E-013
 0.912996E-013
 0.912953E-013
 0.912908E-013
 0.912863E-013
 0.912817E-013
 0.912770E-013
 0.912723E-013
 0.912675E-013
 0.912626E-013
 0.912576E-013
 0.912526E-013
 0.912475E-013
 0.912424E-013
 0.912372E-013
 0.912320E-013
 0.912267E-013
 0.912214E-013
 0.912161E-013
 0.912107E-013
 0.912053E-013
 0.911999E-013
 0.911944E-013
 0.911889E-013
 0.911834E-013
 0.911778E-013
 0.911722E-013
 0.911666E-013
 0.911610E-013
 0.911554E-013
 0.911500E-013
 0.911432E-013
 0.911417E-013
 0.911215E-013
 0.911601E-013
 0.910358E-013
 0.913038E-013
 0.907619E-013
 0.916336E-013
 0.916933E-013
 0.906877E-013
 0.913053E-013
 0.909849E-013
 0.911215E-013
 0.910676E-013
 0.910827E-013
 0.910758E-013
 0.910751E-013
 0.910729E-013
 0.910710E-013
 0.910691E-013
 0.910672E-013
 0.910652E-013
 0.910633E-013
 0.910614E-013
 0.910596E-013
 0.910577E-013
 0.910558E-013
 0.910540E-013
 0.910521E-013
 0.910503E-013
 0.910485E-013
 0.910467E-013
 0.910449E-013
 0.910431E-013
 0.910413E-013
 0.910396E-013
 0.910379E-013
 0.910362E-013
 0.910345E-013
 0.910328E-013
 0.910312E-013
 0.910296E-013
 0.910280E-013
 0.910265E-013
 0.910250E-013
 0.910235E-013
 0.910220E-013
 0.910206E-013
 0.910193E-013
 0.910179E-013
 0.910166E-013
 0.910154E-013
 0.910142E-013
 0.910130E-013
 0.910119E-013
 0.910108E-013
 0.910098E-013
 0.910089E-013
 0.910080E-013
 0.910072E-013
 0.910064E-013
 0.910057E-013
 0.910050E-013
 0.910044E-013
 0.910039E-013
 0.910034E-013
 0.910030E-013
 0.910026E-013
 0.910024E-013
 0.910022E-013
 0.910020E-013
 0.910020E-013
 0.910020E-013
 0.910020E-013
 0.910022E-013
 0.910024E-013
 0.910026E-013
 0.910030E-013
 0.910034E-013
 0.910039E-013
 0.910044E-013
 0.910050E-013
 0.910057E-013
 0.910064E-013
 0.910072E-013
 0.910080E-013
 0.910089E-013
 0.910098E-013
 0.910108E-013
 0.910119E-013
 0.910130E-013
 0.910142E-013
 0.910154E-013
 0.910166E-013
 0.910179E-013
 0.910193E-013
 0.910206E-013
 0.910220E-013
 0.910235E-013
 0.910250E-013
 0.910265E-013
 0.910280E-013
 0.910296E-013
 0.910312E-013
 0.910329E-013
 0.910345E-013
 0.910362E-013
 0.910379E-013
 0.910396E-013
 0.910413E-013
 0.910431E-013
 0.910449E-013
 0.910467E-013
 0.910485E-013
 0.910503E-013
 0.910521E-013
 0.910540E-013
 0.910558E-013
 0.910577E-013
 0.910596E-013
 0.910615E-013
 0.910633E-013
 0.910652E-013
 0.910672E-013
 0.910691E-013
 0.910710E-013
 0.910729E-013
 0.910751E-013
 0.910758E-013
 0.910827E-013
 0.910676E-013
 0.911215E-013
 0.909849E-013
 0.913053E-013
 0.906877E-013
 0.916933E-013
 0.917745E-013
 0.906403E-013
 0.913454E-013
 0.909824E-013
 0.911417E-013
 0.910827E-013
 0.911028E-013
 0.910977E-013
 0.910998E-013
 0.911000E-013
 0.911007E-013
 0.911012E-013
 0.911018E-013
 0.911024E-013
 0.911030E-013
 0.911035E-013
 0.911041E-013
 0.911047E-013
 0.911052E-013
 0.911058E-013
 0.911063E-013
 0.911069E-013
 0.911074E-013
 0.911080E-013
 0.911085E-013
 0.911091E-013
 0.911096E-013
 0.911101E-013
 0.911106E-013
 0.911112E-013
 0.911117E-013
 0.911122E-013
 0.911127E-013
 0.911132E-013
 0.911136E-013
 0.911141E-013
 0.911146E-013
 0.911150E-013
 0.911155E-013
 0.911159E-013
 0.911163E-013
 0.911167E-013
 0.911171E-013
 0.911175E-013
 0.911178E-013
 0.911182E-013
 0.911185E-013
 0.911189E-013
 0.911192E-013
 0.911195E-013
 0.911197E-013
 0.911200E-013
 0.911202E-013
 0.911205E-013
 0.911207E-013
 0.911208E-013
 0.911210E-013
 0.911211E-013
 0.911213E-013
 0.911214E-013
 0.911215E-013
 0.911215E-013
 0.911216E-013
 0.911216E-013
 0.911216E-013
 0.911216E-013
 0.911215E-013
 0.911215E-013
 0.911214E-013
 0.911213E-013
 0.911211E-013
 0.911210E-013
 0.911208E-013
 0.911207E-013
 0.911205E-013
 0.911202E-013
 0.911200E-013
 0.911197E-013
 0.911195E-013
 0.911192E-013
 0.911189E-013
 0.911185E-013
 0.911182E-013
 0.911178E-013
 0.911175E-013
 0.911171E-013
 0.911167E-013
 0.911163E-013
 0.911159E-013
 0.911155E-013
 0.911150E-013
 0.911146E-013
 0.911141E-013
 0.911136E-013
 0.911132E-013
 0.911127E-013
 0.911122E-013
 0.911117E-013
 0.911112E-013
 0.911106E-013
 0.911101E-013
 0.911096E-013
 0.911091E-013
 0.911085E-013
 0.911080E-013
 0.911074E-013
 0.911069E-013
 0.911063E-013
 0.911058E-013
 0.911052E-013
 0.911047E-013
 0.911041E-013
 0.911035E-013
 0.911030E-013
 0.911024E-013
 0.911018E-013
 0.911012E-013
 0.911007E-013
 0.911000E-013
 0.910998E-013
 0.910977E-013
 0.911028E-013
 0.910827E-013
 0.911417E-013
 0.909824E-013
 0.913454E-013
 0.906403E-013
 0.917745E-013
 0.918491E-013
 0.905846E-013
 0.913732E-013
 0.909646E-013
 0.911432E-013
 0.910758E-013
 0.910977E-013
 0.910911E-013
 0.910927E-013
 0.910921E-013
 0.910920E-013
 0.910919E-013
 0.910917E-013
 0.910916E-013
 0.910914E-013
 0.910913E-013
 0.910911E-013
 0.910909E-013
 0.910908E-013
 0.910907E-013
 0.910905E-013
 0.910904E-013
 0.910902E-013
 0.910901E-013
 0.910899E-013
 0.910898E-013
 0.910896E-013
 0.910895E-013
 0.910894E-013
 0.910892E-013
 0.910891E-013
 0.910890E-013
 0.910888E-013
 0.910887E-013
 0.910886E-013
 0.910885E-013
 0.910883E-013
 0.910882E-013
 0.910881E-013
 0.910880E-013
 0.910879E-013
 0.910878E-013
 0.910877E-013
 0.910876E-013
 0.910875E-013
 0.910874E-013
 0.910873E-013
 0.910873E-013
 0.910872E-013
 0.910871E-013
 0.910870E-013
 0.910870E-013
 0.910869E-013
 0.910869E-013
 0.910868E-013
 0.910868E-013
 0.910867E-013
 0.910867E-013
 0.910867E-013
 0.910866E-013
 0.910866E-013
 0.910866E-013
 0.910866E-013
 0.910866E-013
 0.910866E-013
 0.910866E-013
 0.910866E-013
 0.910866E-013
 0.910866E-013
 0.910867E-013
 0.910867E-013
 0.910867E-013
 0.910868E-013
 0.910868E-013
 0.910869E-013
 0.910869E-013
 0.910870E-013
 0.910870E-013
 0.910871E-013
 0.910872E-013
 0.910873E-013
 0.910873E-013
 0.910874E-013
 0.910875E-013
 0.910876E-013
 0.910877E-013
 0.910878E-013
 0.910879E-013
 0.910880E-013
 0.910881E-013
 0.910882E-013
 0.910883E-013
 0.910885E-013
 0.910886E-013
 0.910887E-013
 0.910888E-013
 0.910890E-013
 0.910891E-013
 0.910892E-013
 0.910894E-013
 0.910895E-013
 0.910896E-013
 0.910898E-013
 0.910899E-013
 0.910901E-013
 0.910902E-013
 0.910904E-013
 0.910905E-013
 0.910907E-013
 0.910908E-013
 0.910909E-013
 0.910911E-013
 0.910913E-013
 0.910914E-013
 0.910916E-013
 0.910917E-013
 0.910919E-013
 0.910920E-013
 0.910921E-013
 0.910927E-013
 0.910911E-013
 0.910977E-013
 0.910758E-013
 0.911432E-013
 0.909646E-013
 0.913732E-013
 0.905846E-013
 0.918491E-013
 0.919252E-013
 0.905315E-013
 0.914044E-013
 0.909512E-013
 0.911500E-013
 0.910751E-013
 0.910998E-013
 0.910927E-013
 0.910946E-013
 0.910942E-013
 0.910943E-013
 0.910943E-013
 0.910943E-013
 0.910944E-013
 0.910944E-013
 0.910945E-013
 0.910945E-013
 0.910945E-013
 0.910946E-013
 0.910946E-013
 0.910946E-013
 0.910947E-013
 0.910947E-013
 0.910948E-013
 0.910948E-013
 0.910948E-013
 0.910949E-013
 0.910949E-013
 0.910949E-013
 0.910950E-013
 0.910950E-013
 0.910950E-013
 0.910951E-013
 0.910951E-013
 0.910951E-013
 0.910952E-013
 0.910952E-013
 0.910952E-013
 0.910953E-013
 0.910953E-013
 0.910953E-013
 0.910954E-013
 0.910954E-013
 0.910954E-013
 0.910955E-013
 0.910955E-013
 0.910955E-013
 0.910955E-013
 0.910956E-013
 0.910956E-013
 0.910956E-013
 0.910956E-013
 0.910957E-013
 0.910957E-013
 0.910957E-013
 0.910957E-013
 0.910957E-013
 0.910957E-013
 0.910958E-013
 0.910958E-013
 0.910958E-013
 0.910958E-013
 0.910958E-013
 0.910958E-013
 0.910958E-013
 0.910958E-013
 0.910958E-013
 0.910958E-013
 0.910958E-013
 0.910958E-013
 0.910957E-013
 0.910957E-013
 0.910957E-013
 0.910957E-013
 0.910957E-013
 0.910957E-013
 0.910956E-013
 0.910956E-013
 0.910956E-013
 0.910956E-013
 0.910955E-013
 0.910955E-013
 0.910955E-013
 0.910955E-013
 0.910954E-013
 0.910954E-013
 0.910954E-013
 0.910953E-013
 0.910953E-013
 0.910953E-013
 0.910952E-013
 0.910952E-013
 0.910952E-013
 0.910951E-013
 0.910951E-013
 0.910951E-013
 0.910950E-013
 0.910950E-013
 0.910950E-013
 0.910949E-013
 0.910949E-013
 0.910949E-013
 0.910948E-013
 0.910948E-013
 0.910948E-013
 0.910947E-013
 0.910947E-013
 0.910946E-013
 0.910946E-013
 0.910946E-013
 0.910945E-013
 0.910945E-013
 0.910945E-013
 0.910944E-013
 0.910944E-013
 0.910943E-013
 0.910943E-013
 0.910943E-013
 0.910942E-013
 0.910946E-013
 0.910927E-013
 0.910998E-013
 0.910751E-013
 0.911500E-013
 0.909512E-013
 0.914044E-013
 0.905315E-013
 0.919252E-013
 0.920006E-013
 0.904779E-013
 0.914346E-013
 0.909368E-013
 0.911554E-013
 0.910729E-013
 0.911000E-013
 0.910921E-013
 0.910942E-013
 0.910937E-013
 0.910938E-013
 0.910937E-013
 0.910937E-013
 0.910937E-013
 0.910937E-013
 0.910937E-013
 0.910937E-013
 0.910937E-013
 0.910937E-013
 0.910937E-013
 0.910937E-013
 0.910937E-013
 0.910937E-013
 0.910937E-013
 0.910936E-013
 0.910936E-013
 0.910936E-013
 0.910936E-013
 0.910936E-013
 0.910936E-013
 0.910936E-013
 0.910936E-013
 0.910936E-013
 0.910936E-013
 0.910936E-013
 0.910936E-013
 0.910936E-013
 0.910936E-013
 0.910936E-013
 0.910936E-013
 0.910936E-013
 0.910936E-013
 0.910936E-013
 0.910936E-013
 0.910936E-013
 0.910936E-013
 0.910936E-013
 0.910936E-013
 0.910936E-013
 0.910936E-013
 0.910936E-013
 0.910936E-013
 0.910936E-013
 0.910936E-013
 0.910936E-013
 0.910936E-013
 0.910936E-013
 0.910936E-013
 0.910936E-013
 0.910936E-013
 0.910936E-013
 0.910936E-013
 0.910936E-013
 0.910936E-013
 0.910936E-013
 0.910936E-013
 0.910936E-013
 0.910936E-013
 0.910936E-013
 0.910936E-013
 0.910936E-013
 0.910936E-013
 0.910936E-013
 0.910936E-013
 0.910936E-013
 0.910936E-013
 0.910936E-013
 0.910936E-013
 0.910936E-013
 0.910936E-013
 0.910936E-013
 0.910936E-013
 0.910936E-013
 0.910936E-013
 0.910936E-013
 0.910936E-013
 0.910936E-013
 0.910936E-013
 0.910936E-013
 0.910936E-013
 0.910936E-013
 0.910936E-013
 0.910936E-013
 0.910936E-013
 0.910936E-013
 0.910936E-013
 0.910936E-013
 0.910936E-013
 0.910936E-013
 0.910936E-013
 0.910936E-013
 0.910936E-013
 0.910936E-013
 0.910936E-013
 0.910937E-013
 0.910937E-013
 0.910937E-013
 0.910937E-013
 0.910937E-013
 0.910937E-013
 0.910937E-013
 0.910937E-013
 0.910937E-013
 0.910937E-013
 0.910937E-013
 0.910937E-013
 0.910937E-013
 0.910938E-013
 0.910937E-013
 0.910942E-013
 0.910921E-013
 0.911000E-013
 0.910729E-013
 0.911554E-013
 0.909368E-013
 0.914346E-013
 0.904779E-013
 0.920006E-013
 0.920759E-013
 0.904246E-013
 0.914649E-013
 0.909226E-013
 0.911610E-013
 0.910710E-013
 0.911007E-013
 0.910920E-013
 0.910943E-013
 0.910938E-013
 0.910939E-013
 0.910939E-013
 0.910939E-013
 0.910939E-013
 0.910939E-013
 0.910939E-013
 0.910939E-013
 0.910939E-013
 0.910939E-013
 0.910939E-013
 0.910939E-013
 0.910939E-013
 0.910939E-013
 0.910939E-013
 0.910939E-013
 0.910939E-013
 0.910939E-013
 0.910939E-013
 0.910939E-013
 0.910939E-013
 0.910939E-013
 0.910939E-013
 0.910939E-013
 0.910939E-013
 0.910940E-013
 0.910940E-013
 0.910940E-013
 0.910940E-013
 0.910940E-013
 0.910940E-013
 0.910940E-013
 0.910940E-013
 0.910940E-013
 0.910940E-013
 0.910940E-013
 0.910940E-013
 0.910940E-013
 0.910941E-013
 0.910941E-013