# vtk DataFile Version 3.0
Solution data
ASCII
DATASET STRUCTURED_GRID
DIMENSIONS 128 128 1
POINTS 16384  double
      0.000004      0.000004      0.000000
      0.000012      0.000004      0.000000
      0.000020      0.000004      0.000000
      0.000027      0.000004      0.000000
      0.000035      0.000004      0.000000
      0.000043      0.000004      0.000000
      0.000051      0.000004      0.000000
      0.000059      0.000004      0.000000
      0.000066      0.000004      0.000000
      0.000074      0.000004      0.000000
      0.000082      0.000004      0.000000
      0.000090      0.000004      0.000000
      0.000098      0.000004      0.000000
      0.000105      0.000004      0.000000
      0.000113      0.000004      0.000000
      0.000121      0.000004      0.000000
      0.000129      0.000004      0.000000
      0.000137      0.000004      0.000000
      0.000145      0.000004      0.000000
      0.000152      0.000004      0.000000
      0.000160      0.000004      0.000000
      0.000168      0.000004      0.000000
      0.000176      0.000004      0.000000
      0.000184      0.000004      0.000000
      0.000191      0.000004      0.000000
      0.000199      0.000004      0.000000
      0.000207      0.000004      0.000000
      0.000215      0.000004      0.000000
      0.000223      0.000004      0.000000
      0.000230      0.000004      0.000000
      0.000238      0.000004      0.000000
      0.000246      0.000004      0.000000
      0.000254      0.000004      0.000000
      0.000262      0.000004      0.000000
      0.000270      0.000004      0.000000
      0.000277      0.000004      0.000000
      0.000285      0.000004      0.000000
      0.000293      0.000004      0.000000
      0.000301      0.000004      0.000000
      0.000309      0.000004      0.000000
      0.000316      0.000004      0.000000
      0.000324      0.000004      0.000000
      0.000332      0.000004      0.000000
      0.000340      0.000004      0.000000
      0.000348      0.000004      0.000000
      0.000355      0.000004      0.000000
      0.000363      0.000004      0.000000
      0.000371      0.000004      0.000000
      0.000379      0.000004      0.000000
      0.000387      0.000004      0.000000
      0.000395      0.000004      0.000000
      0.000402      0.000004      0.000000
      0.000410      0.000004      0.000000
      0.000418      0.000004      0.000000
      0.000426      0.000004      0.000000
      0.000434      0.000004      0.000000
      0.000441      0.000004      0.000000
      0.000449      0.000004      0.000000
      0.000457      0.000004      0.000000
      0.000465      0.000004      0.000000
      0.000473      0.000004      0.000000
      0.000480      0.000004      0.000000
      0.000488      0.000004      0.000000
      0.000496      0.000004      0.000000
      0.000504      0.000004      0.000000
      0.000512      0.000004      0.000000
      0.000520      0.000004      0.000000
      0.000527      0.000004      0.000000
      0.000535      0.000004      0.000000
      0.000543      0.000004      0.000000
      0.000551      0.000004      0.000000
      0.000559      0.000004      0.000000
      0.000566      0.000004      0.000000
      0.000574      0.000004      0.000000
      0.000582      0.000004      0.000000
      0.000590      0.000004      0.000000
      0.000598      0.000004      0.000000
      0.000605      0.000004      0.000000
      0.000613      0.000004      0.000000
      0.000621      0.000004      0.000000
      0.000629      0.000004      0.000000
      0.000637      0.000004      0.000000
      0.000645      0.000004      0.000000
      0.000652      0.000004      0.000000
      0.000660      0.000004      0.000000
      0.000668      0.000004      0.000000
      0.000676      0.000004      0.000000
      0.000684      0.000004      0.000000
      0.000691      0.000004      0.000000
      0.000699      0.000004      0.000000
      0.000707      0.000004      0.000000
      0.000715      0.000004      0.000000
      0.000723      0.000004      0.000000
      0.000730      0.000004      0.000000
      0.000738      0.000004      0.000000
      0.000746      0.000004      0.000000
      0.000754      0.000004      0.000000
      0.000762      0.000004      0.000000
      0.000770      0.000004      0.000000
      0.000777      0.000004      0.000000
      0.000785      0.000004      0.000000
      0.000793      0.000004      0.000000
      0.000801      0.000004      0.000000
      0.000809      0.000004      0.000000
      0.000816      0.000004      0.000000
      0.000824      0.000004      0.000000
      0.000832      0.000004      0.000000
      0.000840      0.000004      0.000000
      0.000848      0.000004      0.000000
      0.000855      0.000004      0.000000
      0.000863      0.000004      0.000000
      0.000871      0.000004      0.000000
      0.000879      0.000004      0.000000
      0.000887      0.000004      0.000000
      0.000895      0.000004      0.000000
      0.000902      0.000004      0.000000
      0.000910      0.000004      0.000000
      0.000918      0.000004      0.000000
      0.000926      0.000004      0.000000
      0.000934      0.000004      0.000000
      0.000941      0.000004      0.000000
      0.000949      0.000004      0.000000
      0.000957      0.000004      0.000000
      0.000965      0.000004      0.000000
      0.000973      0.000004      0.000000
      0.000980      0.000004      0.000000
      0.000988      0.000004      0.000000
      0.000996      0.000004      0.000000
      0.000004      0.000012      0.000000
      0.000012      0.000012      0.000000
      0.000020      0.000012      0.000000
      0.000027      0.000012      0.000000
      0.000035      0.000012      0.000000
      0.000043      0.000012      0.000000
      0.000051      0.000012      0.000000
      0.000059      0.000012      0.000000
      0.000066      0.000012      0.000000
      0.000074      0.000012      0.000000
      0.000082      0.000012      0.000000
      0.000090      0.000012      0.000000
      0.000098      0.000012      0.000000
      0.000105      0.000012      0.000000
      0.000113      0.000012      0.000000
      0.000121      0.000012      0.000000
      0.000129      0.000012      0.000000
      0.000137      0.000012      0.000000
      0.000145      0.000012      0.000000
      0.000152      0.000012      0.000000
      0.000160      0.000012      0.000000
      0.000168      0.000012      0.000000
      0.000176      0.000012      0.000000
      0.000184      0.000012      0.000000
      0.000191      0.000012      0.000000
      0.000199      0.000012      0.000000
      0.000207      0.000012      0.000000
      0.000215      0.000012      0.000000
      0.000223      0.000012      0.000000
      0.000230      0.000012      0.000000
      0.000238      0.000012      0.000000
      0.000246      0.000012      0.000000
      0.000254      0.000012      0.000000
      0.000262      0.000012      0.000000
      0.000270      0.000012      0.000000
      0.000277      0.000012      0.000000
      0.000285      0.000012      0.000000
      0.000293      0.000012      0.000000
      0.000301      0.000012      0.000000
      0.000309      0.000012      0.000000
      0.000316      0.000012      0.000000
      0.000324      0.000012      0.000000
      0.000332      0.000012      0.000000
      0.000340      0.000012      0.000000
      0.000348      0.000012      0.000000
      0.000355      0.000012      0.000000
      0.000363      0.000012      0.000000
      0.000371      0.000012      0.000000
      0.000379      0.000012      0.000000
      0.000387      0.000012      0.000000
      0.000395      0.000012      0.000000
      0.000402      0.000012      0.000000
      0.000410      0.000012      0.000000
      0.000418      0.000012      0.000000
      0.000426      0.000012      0.000000
      0.000434      0.000012      0.000000
      0.000441      0.000012      0.000000
      0.000449      0.000012      0.000000
      0.000457      0.000012      0.000000
      0.000465      0.000012      0.000000
      0.000473      0.000012      0.000000
      0.000480      0.000012      0.000000
      0.000488      0.000012      0.000000
      0.000496      0.000012      0.000000
      0.000504      0.000012      0.000000
      0.000512      0.000012      0.000000
      0.000520      0.000012      0.000000
      0.000527      0.000012      0.000000
      0.000535      0.000012      0.000000
      0.000543      0.000012      0.000000
      0.000551      0.000012      0.000000
      0.000559      0.000012      0.000000
      0.000566      0.000012      0.000000
      0.000574      0.000012      0.000000
      0.000582      0.000012      0.000000
      0.000590      0.000012      0.000000
      0.000598      0.000012      0.000000
      0.000605      0.000012      0.000000
      0.000613      0.000012      0.000000
      0.000621      0.000012      0.000000
      0.000629      0.000012      0.000000
      0.000637      0.000012      0.000000
      0.000645      0.000012      0.000000
      0.000652      0.000012      0.000000
      0.000660      0.000012      0.000000
      0.000668      0.000012      0.000000
      0.000676      0.000012      0.000000
      0.000684      0.000012      0.000000
      0.000691      0.000012      0.000000
      0.000699      0.000012      0.000000
      0.000707      0.000012      0.000000
      0.000715      0.000012      0.000000
      0.000723      0.000012      0.000000
      0.000730      0.000012      0.000000
      0.000738      0.000012      0.000000
      0.000746      0.000012      0.000000
      0.000754      0.000012      0.000000
      0.000762      0.000012      0.000000
      0.000770      0.000012      0.000000
      0.000777      0.000012      0.000000
      0.000785      0.000012      0.000000
[...]
POINT_DATA 16384
SCALARS rhoe double
LOOKUP_TABLE default
 0.913709E-013
 0.912961E-013
 0.914190E-013
 0.915096E-013
 0.916039E-013
 0.916977E-013
 0.917914E-013
 0.918849E-013
 0.919783E-013
 0.920715E-013
 0.921645E-013
 0.922573E-013
 0.923499E-013
 0.924423E-013
 0.925345E-013
 0.926263E-013
 0.927180E-013
 0.928093E-013
 0.929002E-013
 0.929908E-013
 0.930810E-013
 0.931708E-013
 0.932601E-013
 0.933488E-013
 0.934370E-013
 0.935245E-013
 0.936114E-013
 0.936975E-013
 0.937828E-013
 0.938673E-013
 0.939508E-013
 0.940333E-013
 0.941147E-013
 0.941949E-013
 0.942739E-013
 0.943515E-013
 0.944276E-013
 0.945023E-013
 0.945753E-013
 0.946467E-013
 0.947162E-013
 0.947837E-013
 0.948493E-013
 0.949128E-013
 0.949740E-013
 0.950329E-013
 0.950895E-013
 0.951435E-013
 0.951949E-013
 0.952436E-013
 0.952895E-013
 0.953325E-013
 0.953726E-013
 0.954096E-013
 0.954435E-013
 0.954742E-013
 0.955017E-013
 0.955259E-013
 0.955467E-013
 0.955641E-013
 0.955781E-013
 0.955886E-013
 0.955956E-013
 0.955992E-013
 0.955991E-013
 0.955956E-013
 0.955886E-013
 0.955781E-013
 0.955641E-013
 0.955467E-013
 0.955258E-013
 0.955017E-013
 0.954742E-013
 0.954434E-013
 0.954095E-013
 0.953725E-013
 0.953324E-013
 0.952894E-013
 0.952434E-013
 0.951947E-013
 0.951433E-013
 0.950893E-013
 0.950328E-013
 0.949739E-013
 0.949126E-013
 0.948491E-013
 0.947836E-013
 0.947160E-013
 0.946465E-013
 0.945751E-013
 0.945021E-013
 0.944274E-013
 0.943513E-013
 0.942736E-013
 0.941947E-013
 0.941145E-013
 0.940331E-013
 0.939506E-013
 0.938671E-013
 0.937826E-013
 0.936973E-013
 0.936112E-013
 0.935243E-013
 0.934368E-013
 0.933486E-013
 0.932599E-013
 0.931706E-013
 0.930808E-013
 0.929906E-013
 0.929000E-013
 0.928091E-013
 0.927178E-013
 0.926262E-013
 0.925343E-013
 0.924422E-013
 0.923498E-013
 0.922572E-013
 0.921644E-013
 0.920714E-013
 0.919782E-013
 0.918848E-013
 0.917913E-013
 0.916976E-013
 0.916038E-013
 0.915095E-013
 0.914189E-013
 0.912960E-013
 0.913709E-013
 0.912961E-013
 0.910076E-013
 0.910374E-013
 0.910123E-013
 0.909941E-013
 0.909753E-013
 0.909565E-013
 0.909378E-013
 0.909192E-013
 0.909006E-013
 0.908820E-013
 0.908635E-013
 0.908451E-013
 0.908267E-013
 0.908083E-013
 0.907901E-013
 0.907719E-013
 0.907538E-013
 0.907357E-013
 0.907177E-013
 0.906999E-013
 0.906821E-013
 0.906644E-013
 0.906469E-013
 0.906295E-013
 0.906122E-013
 0.905950E-013
 0.905781E-013
 0.905612E-013
 0.905446E-013
 0.905282E-013
 0.905120E-013
 0.904960E-013
 0.904802E-013
 0.904647E-013
 0.904495E-013
 0.904346E-013
 0.904200E-013
 0.904057E-013
 0.903917E-013
 0.903781E-013
 0.903649E-013
 0.903521E-013
 0.903398E-013
 0.903278E-013
 0.903163E-013
 0.903053E-013
 0.902948E-013
 0.902848E-013
 0.902753E-013
 0.902664E-013
 0.902581E-013
 0.902503E-013
 0.902431E-013
 0.902365E-013
 0.902306E-013
 0.902252E-013
 0.902205E-013
 0.902165E-013
 0.902131E-013
 0.902104E-013
 0.902084E-013
 0.902070E-013
 0.902063E-013
 0.902063E-013
 0.902070E-013
 0.902084E-013
 0.902104E-013
 0.902131E-013
 0.902165E-013
 0.902205E-013
 0.902252E-013
 0.902306E-013
 0.902365E-013
 0.902431E-013
 0.902503E-013
 0.902581E-013
 0.902664E-013
 0.902754E-013
 0.902848E-013
 0.902948E-013
 0.903053E-013
 0.903164E-013
 0.903278E-013
 0.903398E-013
 0.903522E-013
 0.903650E-013
 0.903782E-013
 0.903917E-013
 0.904057E-013
 0.904200E-013
 0.904346E-013
 0.904495E-013
 0.904648E-013
 0.904802E-013
 0.904960E-013
 0.905120E-013
 0.905282E-013
 0.905446E-013
 0.905613E-013
 0.905781E-013
 0.905951E-013
 0.906122E-013
 0.906295E-013
 0.906469E-013
 0.906645E-013
 0.906821E-013
 0.906999E-013
 0.907178E-013
 0.907357E-013
 0.907538E-013
 0.907719E-013
 0.907901E-013
 0.908084E-013
 0.908267E-013
 0.908451E-013
 0.908635E-013
 0.908820E-013
 0.909006E-013
 0.909192E-013
 0.909378E-013
 0.909565E-013
 0.909753E-013
 0.909941E-013
 0.910123E-013
 0.910374E-013
 0.910076E-013
 0.912960E-013
 0.914190E-013
 0.910374E-013
 0.911103E-013
 0.911038E-013
 0.911072E-013
 0.911097E-013
 0.911122E-013
 0.911148E-013
 0.911173E-013
 0.911198E-013
 0.911223E-013
 0.911248E-013
 0.911273E-013
 0.911298E-013
 0.911323E-013
 0.911347E-013
 0.911372E-013
 0.911396E-013
 0.911421E-013
 0.911445E-013
 0.911469E-013
 0.911493E-013
 0.911517E-013
 0.911541E-013
 0.911564E-013
 0.911588E-013
 0.911611E-013
 0.911634E-013
 0.911657E-013
 0.911679E-013
 0.911701E-013
 0.911723E-013
 0.911745E-013
 0.911767E-013
 0.911788E-013
 0.911808E-013
 0.911829E-013
 0.911849E-013
 0.911868E-013
 0.911887E-013
 0.911906E-013
 0.911924E-013
 0.911941E-013
 0.911958E-013
 0.911975E-013
 0.911991E-013
 0.912006E-013
 0.912020E-013
 0.912034E-013
 0.912047E-013
 0.912060E-013
 0.912071E-013
 0.912082E-013
 0.912092E-013
 0.912101E-013
 0.912109E-013
 0.912117E-013
 0.912123E-013
 0.912129E-013
 0.912134E-013
 0.912137E-013
 0.912140E-013
 0.912142E-013
 0.912143E-013
 0.912143E-013
 0.912142E-013
 0.912140E-013
 0.912137E-013
 0.912134E-013
 0.912129E-013
 0.912123E-013
 0.912117E-013
 0.912109E-013
 0.912101E-013
 0.912092E-013
 0.912082E-013
 0.912071E-013
 0.912060E-013
 0.912047E-013
 0.912034E-013
 0.912020E-013
 0.912006E-013
 0.911991E-013
 0.911975E-013
 0.911958E-013
 0.911941E-013
 0.911924E-013
 0.911906E-013
 0.911887E-013
 0.911868E-013
 0.911849E-013
 0.911829E-013
 0.911808E-013
 0.911788E-013
 0.911767E-013
 0.911745E-013
 0.911723E-013
 0.911701E-013
 0.911679E-013
 0.911657E-013
 0.911634E-013
 0.911611E-013
 0.911588E-013
 0.911564E-013
 0.911541E-013
 0.911517E-013
 0.911493E-013
 0.911469E-013
 0.911445E-013
 0.911421E-013
 0.911396E-013
 0.911372E-013
 0.911347E-013
 0.911323E-013
 0.911298E-013
 0.911273E-013
 0.911248E-013
 0.911223E-013
 0.911198E-013
 0.911173E-013
 0.911148E-013
 0.911122E-013
 0.911097E-013
 0.911072E-013
 0.911038E-013
 0.911103E-013
 0.910374E-013
 0.914189E-013
 0.915096E-013
 0.910123E-013
 0.911038E-013
 0.910917E-013
 0.910926E-013
 0.910922E-013
 0.910920E-013
 0.910917E-013
 0.910915E-013
 0.910912E-013
 0.910909E-013
 0.910907E-013
 0.910904E-013
 0.910902E-013
 0.910899E-013
 0.910897E-013
 0.910895E-013
 0.910892E-013
 0.910890E-013
 0.910887E-013
 0.910885E-013
 0.910883E-013
 0.910880E-013
 0.910878E-013
 0.910876E-013
 0.910874E-013
 0.910871E-013
 0.910869E-013
 0.910867E-013
 0.910865E-013
 0.910863E-013
 0.910861E-013
 0.910859E-013
 0.910857E-013
 0.910856E-013
 0.910854E-013
 0.910852E-013
 0.910851E-013
 0.910849E-013
 0.910848E-013
 0.910846E-013
 0.910845E-013
 0.910843E-013
 0.910842E-013
 0.910841E-013
 0.910840E-013
 0.910839E-013
 0.910838E-013
 0.910837E-013
 0.910836E-013
 0.910835E-013
 0.910835E-013
 0.910834E-013
 0.910834E-013
 0.910833E-013
 0.910833E-013
 0.910832E-013
 0.910832E-013
 0.910831E-013
 0.910831E-013
 0.910831E-013
 0.910831E-013
 0.910831E-013
 0.910831E-013
 0.910831E-013
 0.910831E-013
 0.910831E-013
 0.910831E-013
 0.910831E-013
 0.910831E-013
 0.910832E-013
 0.910832E-013
 0.910833E-013
 0.910833E-013
 0.910834E-013
 0.910834E-013
 0.910835E-013
 0.910835E-013
 0.910836E-013
 0.910837E-013
 0.910838E-013
 0.910839E-013
 0.910840E-013
 0.910841E-013
 0.910842E-013
 0.910843E-013
 0.910845E-013
 0.910846E-013
 0.910848E-013
 0.910849E-013
 0.910851E-013
 0.910852E-013
 0.910854E-013
 0.910856E-013
 0.910857E-013
 0.910859E-013
 0.910861E-013
 0.910863E-013
 0.910865E-013
 0.910867E-013
 0.910869E-013
 0.910871E-013
 0.910874E-013
 0.910876E-013
 0.910878E-013
 0.910880E-013
 0.910883E-013
 0.910885E-013
 0.910887E-013
 0.910890E-013
 0.910892E-013
 0.910895E-013
 0.910897E-013
 0.910899E-013
 0.910902E-013
 0.910904E-013
 0.910907E-013
 0.910909E-013
 0.910912E-013
 0.910915E-013
 0.910917E-013
 0.910920E-013
 0.910922E-013
 0.910926E-013
 0.910917E-013
 0.911038E-013
 0.910123E-013
 0.915095E-013
 0.916039E-013
 0.909941E-013
 0.911072E-013
 0.910926E-013
 0.910941E-013
 0.910940E-013
 0.910940E-013
 0.910940E-013
 0.910940E-013
 0.910941E-013
 0.910941E-013
 0.910941E-013
 0.910941E-013
 0.910941E-013
 0.910942E-013
 0.910942E-013
 0.910942E-013
 0.910942E-013
 0.910943E-013
 0.910943E-013
 0.910943E-013
 0.910944E-013
 0.910944E-013
 0.910944E-013
 0.910945E-013
 0.910945E-013
 0.910945E-013
 0.910946E-013
 0.910946E-013
 0.910947E-013
 0.910947E-013
 0.910948E-013
 0.910948E-013
 0.910949E-013
 0.910949E-013
 0.910950E-013
 0.910950E-013
 0.910951E-013
 0.910952E-013
 0.910952E-013
 0.910953E-013
 0.910954E-013
 0.910954E-013
 0.910955E-013
 0.910956E-013
 0.910956E-013
 0.910957E-013
 0.910958E-013
 0.910958E-013
 0.910959E-013
 0.910960E-013
 0.910960E-013
 0.910961E-013
 0.910961E-013
 0.910962E-013
 0.910962E-013
 0.910963E-013
 0.910963E-013
 0.910964E-013
 0.910964E-013
 0.910964E-013
 0.910964E-013
 0.910964E-013
 0.910965E-013
 0.910965E-013
 0.910964E-013
 0.910964E-013
 0.910964E-013
 0.910964E-013
 0.910964E-013
 0.910963E-013
 0.910963E-013
 0.910962E-013
 0.910962E-013
 0.910961E-013
 0.910961E-013
 0.910960E-013
 0.910960E-013
 0.910959E-013
 0.910958E-013
 0.910958E-013
 0.910957E-013
 0.910956E-013
 0.910956E-013
 0.910955E-013
 0.910954E-013
 0.910954E-013
 0.910953E-013
 0.910952E-013
 0.910952E-013
 0.910951E-013
 0.910950E-013
 0.910950E-013
 0.910949E-013
 0.910949E-013
 0.910948E-013
 0.910948E-013
 0.910947E-013
 0.910947E-013
 0.910946E-013
 0.910946E-013
 0.910945E-013
 0.910945E-013
 0.910945E-013
 0.910944E-013
 0.910944E-013
 0.910944E-013
 0.910943E-013
 0.910943E-013
 0.910943E-013
 0.910942E-013
 0.910942E-013
 0.910942E-013
 0.910942E-013
 0.910941E-013
 0.910941E-013
 0.910941E-013
 0.910941E-013
 0.910941E-013
 0.910940E-013
 0.910940E-013
 0.910940E-013
 0.910940E-013
 0.910941E-013
 0.910926E-013
 0.911072E-013
 0.909941E-013
 0.916038E-013
 0.916977E-013
 0.909753E-013
 0.911097E-013
 0.910922E-013
 0.910940E-013
 0.910938E-013
 0.910938E-013
 0.910938E-013
 0.910938E-013
 0.910938E-013
 0.910938E-013
 0.910938E-013
 0.910938E-013
 0.910938E-013
 0.910938E-013
 0.910938E-013
 0.910938E-013
 0.910938E-013
 0.910939E-013
 0.910939E-013
 0.910939E-013
 0.910939E-013
 0.910939E-013
 0.910939E-013
 0.910939E-013
 0.910940E-013
 0.910940E-013
 0.910940E-013
 0.910940E-013
 0.910941E-013
 0.910941E-013
 0.910941E-013
 0.910942E-013
 0.910942E-013
 0.910943E-013
 0.910943E-013
 0.910944E-013
 0.910944E-013
 0.910945E-013
 0.910945E-013
 0.910946E-013
 0.910946E-013
 0.910947E-013
 0.910948E-013
 0.910948E-013
 0.910949E-013
 0.910950E-013
 0.910950E-013
 0.910951E-013
 0.910952E-013
 0.910952E-013
 0.910953E-013
 0.910953E-013
 0.910954E-013
 0.910955E-013
 0.910955E-013
 0.910955E-013
 0.910956E-013
 0.910956E-013
 0.910957E-013
 0.910957E-013
 0.910957E-013
 0.910957E-013
 0.910957E-013
 0.910957E-013
 0.910957E-013
 0.910957E-013
 0.910957E-013
 0.910957E-013
 0.910956E-013
 0.910956E-013
 0.910955E-013
 0.910955E-013
 0.910955E-013
 0.910954E-013
 0.910953E-013
 0.910953E-013
 0.910952E-013
 0.910952E-013
 0.910951E-013
 0.910950E-013
 0.910950E-013
 0.910949E-013
 0.910948E-013
 0.910948E-013
 0.910947E-013
 0.910946E-013
 0.910946E-013
 0.910945E-013
 0.910945E-013
 0.910944E-013
 0.910944E-013
 0.910943E-013
 0.910943E-013
 0.910942E-013
 0.910942E-013
 0.910941E-013
 0.910941E-013
 0.910941E-013
 0.910940E-013
 0.910940E-013
 0.910940E-013
 0.910940E-013
 0.910939E-013
 0.910939E-013
 0.910939E-013
 0.910939E-013
 0.910939E-013
 0.910939E-013
 0.910939E-013
 0.910939E-013
 0.910938E-013
 0.910938E-013
 0.910938E-013
 0.910938E-013
 0.910938E-013
 0.910938E-013
 0.910938E-013
 0.910938E-013
 0.910938E-013
 0.910938E-013
 0.910938E-013
 0.910938E-013
 0.910940E-013
 0.910922E-013
 0.911097E-013
 0.909753E-013
 0.916976E-013
 0.917914E-013
 0.909565E-013
 0.911122E-013
 0.910920E-013
 0.910940E-013
 0.910938E-013
 0.910938E-013
 0.910938E-013
 0.910938E-013
 0.910938E-013
 0.910938E-013
 0.910938E-013
 0.910938E-013
 0.910939E-013
 0.910939E-013
 0.910939E-013
 0.910939E-013
 0.910939E-013
 0.910939E-013
 0.910939E-013
 0.910939E-013
 0.910939E-013
 0.910940E-013
 0.910940E-013
 0.910940E-013
 0.910940E-013
 0.910941E-013
 0.910941E-013
 0.910941E-013
 0.910942E-013
 0.910942E-013
 0.910943E-013
 0.910943E-013
 0.910944E-013
 0.910944E-013
 0.910945E-013
 0.910945E-013
 0.910946E-013
 0.910947E-013
 0.910947E-013
 0.910948E-013
 0.910949E-013
 0.910950E-013
 0.910950E-013
 0.910951E-013
 0.910952E-013
 0.910953E-013
 0.910953E-013
 0.910954E-013
 0.910955E-013
 0.910956E-013
 0.910957E-013
 0.910957E-013
 0.910958E-013
 0.910959E-013
 0.910959E-013
 0.910960E-013
 0.910960E-013
 0.910961E-013
 0.910961E-013
 0.910961E-013
 0.910961E-013
 0.910962E-013
 0.910962E-013
 0.910962E-013
 0.910962E-013
 0.910962E-013
 0.910961E-013
 0.910961E-013
 0.910961E-013
 0.910960E-013
 0.910960E-013
 0.910959E-013
 0.910959E-013
 0.910958E-013
 0.910957E-013
 0.910957E-013
 0.910956E-013
 0.910955E-013
 0.910954E-013
 0.910954E-013
 0.910953E-013
 0.910952E-013
 0.910951E-013
 0.910950E-013
 0.910950E-013
 0.910949E-013
 0.910948E-013
 0.910947E-013
 0.910947E-013
 0.910946E-013
 0.910945E-013
 0.910945E-013
 0.910944E-013
 0.910944E-013
 0.910943E-013
 0.910943E-013
 0.910942E-013
 0.910942E-013
 0.910941E-013
 0.910941E-013
 0.910941E-013
 0.910940E-013
 0.910940E-013
 0.910940E-013
 0.910940E-013
 0.910939E-013
 0.910939E-013
 0.910939E-013
 0.910939E-013
 0.910939E-013
 0.910939E-013
 0.910939E-013
 0.910939E-013
 0.910939E-013
 0.910939E-013
 0.910939E-013
 0.910938E-013
 0.910938E-013
 0.910938E-013
 0.910938E-013
 0.910938E-013
 0.910938E-013
 0.910940E-013
 0.910920E-013
 0.911122E-013
 0.909565E-013
 0.917913E-013
 0.918849E-013
 0.909378E-013
 0.911148E-013
 0.910917E-013
 0.910940E-013
 0.910938E-013
 0.910938E-013
 0.910938E-013
 0.910938E-013
 0.910938E-013
 0.910938E-013
 0.910938E-013
 0.910939E-013
 0.910939E-013
 0.910939E-013
 0.910939E-013
 0.910939E-013
 0.910939E-013
 0.910939E-013
 0.910939E-013
 0.910939E-013
 0.910940E-013
 0.910940E-013
 0.910940E-013
 0.910940E-013
 0.910941E-013
 0.910941E-013
 0.910941E-013
 0.910942E-013
 0.910942E-013
 0.910943E-013
 0.910943E-013
 0.910944E-013
 0.910945E-013
 0.910945E-013
 0.910946E-013
 0.910947E-013
 0.910947E-013
 0.910948E-013
 0.910949E-013
 0.910950E-013
 0.910951E-013
 0.910952E-013
 0.910953E-013
 0.910954E-013
 0.910954E-013
 0.910955E-013
 0.910956E-013
 0.910957E-013
 0.910958E-013
 0.910959E-013
 0.910960E-013
 0.910961E-013
 0.910962E-013
 0.910962E-013
 0.910963E-013
 0.910964E-013
 0.910964E-013
 0.910965E-013
 0.910965E-013
 0.910966E-013
 0.910966E-013
 0.910966E-013
 0.910966E-013
 0.910966E-013
 0.910966E-013
 0.910966E-013
 0.910966E-013
 0.910965E-013
 0.910965E-013
 0.910964E-013
 0.910964E-013
 0.910963E-013
 0.910962E-013
 0.910962E-013
 0.910961E-013
 0.910960E-013
 0.910959E-013
 0.910958E-013
 0.910957E-013
 0.910956E-013
 0.910955E-013
 0.910955E-013
 0.910954E-013
 0.910953E-013
 0.910952E-013
 0.910951E-013
 0.910950E-013
 0.910949E-013
 0.910948E-013
 0.910947E-013
 0.910947E-013
 0.910946E-013
 0.910945E-013
 0.910945E-013
 0.910944E-013
 0.910943E-013
 0.910943E-013
 0.910942E-013
 0.910942E-013
 0.910942E-013
 0.910941E-013
 0.910941E-013
 0.910940E-013
 0.910940E-013
 0.910940E-013
 0.910940E-013
 0.910940E-013
 0.910939E-013
 0.910939E-013
 0.910939E-013
 0.910939E-013
 0.910939E-013
 0.910939E-013
 0.910939E-013
 0.910939E-013
 0.910939E-013
 0.910939E-013
 0.910938E-013
 0.910938E-013
 0.910938E-013
 0.910938E-013
 0.910938E-013
 0.910940E-013
 0.910917E-013
 0.911148E-013
 0.909379E-013
 0.918848E-013
 0.919783E-013
 0.909192E-013
 0.911173E-013
 0.910915E-013
 0.910940E-013
 0.910938E-013
 0.910938E-013
 0.910938E-013
 0.910938E-013
 0.910938E-013
 0.910938E-013
 0.910939E-013
 0.910939E-013
 0.910939E-013
 0.910939E-013
 0.910939E-013
 0.910939E-013
 0.910939E-013
 0.910939E-013
 0.910939E-013
 0.910940E-013
 0.910940E-013
 0.910940E-013
 0.910941E-013
 0.910941E-013
 0.910941E-013
 0.910942E-013
 0.910942E-013
 0.910943E-013
 0.910943E-013
 0.910944E-013
 0.910944E-013
 0.910945E-013
 0.910946E-013
 0.910946E-013
 0.910947E-013
 0.910948E-013
 0.910949E-013
 0.910950E-013
 0.910951E-013
 0.910952E-013
 0.910953E-013
 0.910954E-013
 0.910955E-013
 0.910956E-013
 0.910958E-013
 0.910959E-013
 0.910960E-013
 0.910961E-013
 0.910962E-013
 0.910963E-013
 0.910964E-013
 0.910965E-013
 0.910966E-013
 0.910967E-013
 0.910968E-013
 0.910969E-013
 0.910969E-013
 0.910970E-013
 0.910970E-013
 0.910971E-013
 0.910971E-013
 0.910971E-013
 0.910971E-013
 0.910971E-013
 0.910971E-013
 0.910971E-013
 0.910971E-013
 0.910970E-013
 0.910970E-013
 0.910969E-013
 0.910969E-013
 0.910968E-013
 0.910967E-013
 0.910966E-013
 0.910965E-013
 0.910964E-013
 0.910963E-013
 0.910962E-013
 0.910961E-013
 0.910960E-013
 0.910959E-013
 0.910958E-013
 0.910956E-013
 0.910955E-013
 0.910954E-013
 0.910953E-013
 0.910952E-013
 0.910951E-013
 0.910950E-013
 0.910949E-013
 0.910948E-013
 0.910947E-013
 0.910947E-013
 0.910946E-013
 0.910945E-013
 0.910944E-013
 0.910944E-013
 0.910943E-013
 0.910943E-013
 0.910942E-013
 0.910942E-013
 0.910941E-013
 0.910941E-013
 0.910941E-013
 0.910940E-013
 0.910940E-013
 0.910940E-013
 0.910940E-013
 0.910939E-013
 0.910939E-013
 0.910939E-013
 0.910939E-013
 0.910939E-013
 0.910939E-013
 0.910939E-013
 0.910939E-013
 0.910939E-013
 0.910939E-013
 0.910938E-013
 0.910938E-013
 0.910938E-013
 0.910938E-013
 0.910940E-013
 0.910915E-013
 0.911173E-013
 0.909192E-013
 0.919782E-013
 0.920715E-013
 0.909006E-013
 0.911198E-013
 0.910912E-013
 0.910941E-013
 0.910938E-013
 0.910938E-013
 0.910938E-013
 0.910938E-013
 0.910938E-013
 0.910939E-013
 0.910939E-013
 0.910939E-013
 0.910939E-013
 0.910939E-013
 0.910939E-013
 0.910939E-013
 0.910939E-013
 0.910940E-013
 0.910940E-013
 0.910940E-013
 0.910940E-013
 0.910941E-013
 0.910941E-013
 0.910941E-013
 0.910942E-013
 0.910942E-013
 0.910943E-013
 0.910943E-013
 0.910944E-013
 0.910945E-013
 0.910945E-013
 0.910946E-013
 0.910947E-013
 0.910948E-013
 0.910949E-013
 0.910950E-013
 0.910951E-013
 0.910952E-013
 0.910953E-013
 0.910955E-013
 0.910956E-013
 0.910957E-013
 0.910958E-013
 0.910960E-013
 0.910961E-013
 0.910962E-013
 0.910964E-013
 0.910965E-013
 0.910966E-013
 0.910968E-013
 0.910969E-013
 0.910970E-013
 0.910971E-013
 0.910972E-013
 0.910973E-013
 0.910974E-013
 0.910975E-013
 0.910976E-013
 0.910976E-013
 0.910977E-013
 0.910977E-013
 0.910977E-013
 0.910978E-013
 0.910978E-013
 0.910977E-013
 0.910977E-013
 0.910977E-013
 0.910976E-013
 0.910976E-013
 0.910975E-013
 0.910974E-013
 0.910973E-013
 0.910972E-013
 0.910971E-013
 0.910970E-013
 0.910969E-013
 0.910968E-013
 0.910966E-013
 0.910965E-013
 0.910964E-013
 0.910963E-013
 0.910961E-013
 0.910960E-013
 0.910959E-013
 0.910957E-013
 0.910956E-013
 0.910955E-013
 0.910953E-013
 0.910952E-013
 0.910951E-013
 0.910950E-013
 0.910949E-013
 0.910948E-013
 0.910947E-013
 0.910946E-013
 0.910946E-013
 0.910945E-013
 0.910944E-013
 0.910943E-013
 0.910943E-013
 0.910942E-013
 0.910942E-013
 0.910941E-013
 0.910941E-013
 0.910941E-013
 0.910940E-013
 0.910940E-013
 0.910940E-013
 0.910940E-013
 0.910939E-013
 0.910939E-013
 0.910939E-013
 0.910939E-013
 0.910939E-013
 0.910939E-013
 0.910939E-013
 0.910939E-013
 0.910939E-013
 0.910939E-013
 0.910938E-013
 0.910938E-013
 0.910938E-013
 0.910941E-013
 0.910912E-013
 0.911198E-013
 0.909006E-013
 0.920713E-013
 0.921645E-013
 0.908820E-013
 0.911223E-013
 0.910909E-013
 0.910941E-013
 0.910938E-013
 0.910938E-013
 0.910938E-013
 0.910938E-013
 0.910939E-013
 0.910939E-013
 0.910939E-013
 0.910939E-013
 0.910939E-013
 0.910939E-013
 0.910939E-013
 0.910939E-013
 0.910940E-013
 0.910940E-013
 0.910940E-013
 0.910940E-013
 0.910941E-013
 0.910941E-013
 0.910941E-013
 0.910942E-013
 0.910942E-013
 0.910943E-013
 0.910944E-013
 0.910944E-013
 0.910945E-013
 0.910946E-013
 0.910947E-013
 0.910948E-013
 0.910949E-013
 0.910950E-013
 0.910951E-013
 0.910952E-013
 0.910953E-013
 0.910955E-013
 0.910956E-013
 0.910958E-013
 0.910959E-013
 0.910961E-013
 0.910962E-013
 0.910964E-013
 0.910965E-013
 0.910967E-013
 0.910968E-013
 0.910970E-013