# vtk DataFile Version 3.0
Solution data
ASCII
DATASET STRUCTURED_GRID
DIMENSIONS 128 128 1
POINTS 16384  double
      0.000004      0.000004      0.000000
      0.000012      0.000004      0.000000
      0.000020      0.000004      0.000000
      0.000027      0.000004      0.000000
      0.000035      0.000004      0.000000
      0.000043      0.000004      0.000000
      0.000051      0.000004      0.000000
      0.000059      0.000004      0.000000
      0.000066      0.000004      0.000000
      0.000074      0.000004      0.000000
      0.000082      0.000004      0.000000
      0.000090      0.000004      0.000000
      0.000098      0.000004      0.000000
      0.000105      0.000004      0.000000
      0.000113      0.000004      0.000000
      0.000121      0.000004      0.000000
      0.000129      0.000004      0.000000
      0.000137      0.000004      0.000000
      0.000145      0.000004      0.000000
      0.000152      0.000004      0.000000
      0.000160      0.000004      0.000000
      0.000168      0.000004      0.000000
      0.000176      0.000004      0.000000
      0.000184      0.000004      0.000000
      0.000191      0.000004      0.000000
      0.000199      0.000004      0.000000
      0.000207      0.000004      0.000000
      0.000215      0.000004      0.000000
      0.000223      0.000004      0.000000
      0.000230      0.000004      0.000000
      0.000238      0.000004      0.000000
      0.000246      0.000004      0.000000
      0.000254      0.000004      0.000000
      0.000262      0.000004      0.000000
      0.000270      0.000004      0.000000
      0.000277      0.000004      0.000000
      0.000285      0.000004      0.000000
      0.000293      0.000004      0.000000
      0.000301      0.000004      0.000000
      0.000309      0.000004      0.000000
      0.000316      0.000004      0.000000
      0.000324      0.000004      0.000000
      0.000332      0.000004      0.000000
      0.000340      0.000004      0.000000
      0.000348      0.000004      0.000000
      0.000355      0.000004      0.000000
      0.000363      0.000004      0.000000
      0.000371      0.000004      0.000000
      0.000379      0.000004      0.000000
      0.000387      0.000004      0.000000
      0.000395      0.000004      0.000000
      0.000402      0.000004      0.000000
      0.000410      0.000004      0.000000
      0.000418      0.000004      0.000000
      0.000426      0.000004      0.000000
      0.000434      0.000004      0.000000
      0.000441      0.000004      0.000000
      0.000449      0.000004      0.000000
      0.000457      0.000004      0.000000
      0.000465      0.000004      0.000000
      0.000473      0.000004      0.000000
      0.000480      0.000004      0.000000
      0.000488      0.000004      0.000000
      0.000496      0.000004      0.000000
      0.000504      0.000004      0.000000
      0.000512      0.000004      0.000000
      0.000520      0.000004      0.000000
      0.000527      0.000004      0.000000
      0.000535      0.000004      0.000000
      0.000543      0.000004      0.000000
      0.000551      0.000004      0.000000
      0.000559      0.000004      0.000000
      0.000566      0.000004      0.000000
      0.000574      0.000004      0.000000
      0.000582      0.000004      0.000000
      0.000590      0.000004      0.000000
      0.000598      0.000004      0.000000
      0.000605      0.000004      0.000000
      0.000613      0.000004      0.000000
      0.000621      0.000004      0.000000
      0.000629      0.000004      0.000000
      0.000637      0.000004      0.000000
      0.000645      0.000004      0.000000
      0.000652      0.000004      0.000000
      0.000660      0.000004      0.000000
      0.000668      0.000004      0.000000
      0.000676      0.000004      0.000000
      0.000684      0.000004      0.000000
      0.000691      0.000004      0.000000
      0.000699      0.000004      0.000000
      0.000707      0.000004      0.000000
      0.000715      0.000004      0.000000
      0.000723      0.000004      0.000000
      0.000730      0.000004      0.000000
      0.000738      0.000004      0.000000
      0.000746      0.000004      0.000000
      0.000754      0.000004      0.000000
      0.000762      0.000004      0.000000
      0.000770      0.000004      0.000000
      0.000777      0.000004      0.000000
      0.000785      0.000004      0.000000
      0.000793      0.000004      0.000000
      0.000801      0.000004      0.000000
      0.000809      0.000004      0.000000
      0.000816      0.000004      0.000000
      0.000824      0.000004      0.000000
      0.000832      0.000004      0.000000
      0.000840      0.000004      0.000000
      0.000848      0.000004      0.000000
      0.000855      0.000004      0.000000
      0.000863      0.000004      0.000000
      0.000871      0.000004      0.000000
      0.000879      0.000004      0.000000
      0.000887      0.000004      0.000000
      0.000895      0.000004      0.000000
      0.000902      0.000004      0.000000
      0.000910      0.000004      0.000000
      0.000918      0.000004      0.000000
      0.000926      0.000004      0.000000
      0.000934      0.000004      0.000000
      0.000941      0.000004      0.000000
      0.000949      0.000004      0.000000
      0.000957      0.000004      0.000000
      0.000965      0.000004      0.000000
      0.000973      0.000004      0.000000
      0.000980      0.000004      0.000000
      0.000988      0.000004      0.000000
      0.000996      0.000004      0.000000
      0.000004      0.000012      0.000000
      0.000012      0.000012      0.000000
      0.000020      0.000012      0.000000
      0.000027      0.000012      0.000000
      0.000035      0.000012      0.000000
      0.000043      0.000012      0.000000
      0.000051      0.000012      0.000000
      0.000059      0.000012      0.000000
      0.000066      0.000012      0.000000
      0.000074      0.000012      0.000000
      0.000082      0.000012      0.000000
      0.000090      0.000012      0.000000
      0.000098      0.000012      0.000000
      0.000105      0.000012      0.000000
      0.000113      0.000012      0.000000
      0.000121      0.000012      0.000000
      0.000129      0.000012      0.000000
      0.000137      0.000012      0.000000
      0.000145      0.000012      0.000000
      0.000152      0.000012      0.000000
      0.000160      0.000012      0.000000
      0.000168      0.000012      0.000000
      0.000176      0.000012      0.000000
      0.000184      0.000012      0.000000
      0.000191      0.000012      0.000000
      0.000199      0.000012      0.000000
      0.000207      0.000012      0.000000
      0.000215      0.000012      0.000000
      0.000223      0.000012      0.000000
      0.000230      0.000012      0.000000
      0.000238      0.000012      0.000000
      0.000246      0.000012      0.000000
      0.000254      0.000012      0.000000
      0.000262      0.000012      0.000000
      0.000270      0.000012      0.000000
      0.000277      0.000012      0.000000
      0.000285      0.000012      0.000000
      0.000293      0.000012      0.000000
      0.000301      0.000012      0.000000
      0.000309      0.000012      0.000000
      0.000316      0.000012      0.000000
      0.000324      0.000012      0.000000
      0.000332      0.000012      0.000000
      0.000340      0.000012      0.000000
      0.000348      0.000012      0.000000
      0.000355      0.000012      0.000000
      0.000363      0.000012      0.000000
      0.000371      0.000012      0.000000
      0.000379      0.000012      0.000000
      0.000387      0.000012      0.000000
      0.000395      0.000012      0.000000
      0.000402      0.000012      0.000000
      0.000410      0.000012      0.000000
      0.000418      0.000012      0.000000
      0.000426      0.000012      0.000000
      0.000434      0.000012      0.000000
      0.000441      0.000012      0.000000
      0.000449      0.000012      0.000000
      0.000457      0.000012      0.000000
      0.000465      0.000012      0.000000
      0.000473      0.000012      0.000000
      0.000480      0.000012      0.000000
      0.000488      0.000012      0.000000
      0.000496      0.000012      0.000000
      0.000504      0.000012      0.000000
      0.000512      0.000012      0.000000
      0.000520      0.000012      0.000000
      0.000527      0.000012      0.000000
      0.000535      0.000012      0.000000
      0.000543      0.000012      0.000000
      0.000551      0.000012      0.000000
      0.000559      0.000012      0.000000
      0.000566      0.000012      0.000000
      0.000574      0.000012      0.000000
      0.000582      0.000012      0.000000
      0.000590      0.000012      0.000000
      0.000598      0.000012      0.000000
      0.000605      0.000012      0.000000
      0.000613      0.000012      0.000000
      0.000621      0.000012      0.000000
      0.000629      0.000012      0.000000
      0.000637      0.000012      0.000000
      0.000645      0.000012      0.000000
      0.000652      0.000012      0.000000
      0.000660      0.000012      0.000000
      0.000668      0.000012      0.000000
      0.000676      0.000012      0.000000
      0.000684      0.000012      0.000000
      0.000691      0.000012      0.000000
      0.000699      0.000012      0.000000
      0.000707      0.000012      0.000000
      0.000715      0.000012      0.000000
      0.000723      0.000012      0.000000
      0.000730      0.000012      0.000000
      0.000738      0.000012      0.000000
      0.000746      0.000012      0.000000
      0.000754      0.000012      0.000000
      0.000762      0.000012      0.000000
      0.000770      0.000012      0.000000
      0.000777      0.000012      0.000000
      0.000785      0.000012      0.000000
[...]
POINT_DATA 16384
SCALARS rhoe double
LOOKUP_TABLE default
 0.916720E-013
 0.912089E-013
 0.915534E-013
 0.915215E-013
 0.916417E-013
 0.917077E-013
 0.917904E-013
 0.918682E-013
 0.919470E-013
 0.920252E-013
 0.921033E-013
 0.921810E-013
 0.922585E-013
 0.923358E-013
 0.924127E-013
 0.924892E-013
 0.925655E-013
 0.926414E-013
 0.927168E-013
 0.927918E-013
 0.928664E-013
 0.929405E-013
 0.930140E-013
 0.930870E-013
 0.931594E-013
 0.932312E-013
 0.933023E-013
 0.933726E-013
 0.934422E-013
 0.935109E-013
 0.935788E-013
 0.936457E-013
 0.937116E-013
 0.937764E-013
 0.938401E-013
 0.939026E-013
 0.939639E-013
 0.940238E-013
 0.940824E-013
 0.941394E-013
 0.941950E-013
 0.942489E-013
 0.943011E-013
 0.943516E-013
 0.944002E-013
 0.944469E-013
 0.944917E-013
 0.945344E-013
 0.945750E-013
 0.946135E-013
 0.946497E-013
 0.946836E-013
 0.947151E-013
 0.947442E-013
 0.947708E-013
 0.947949E-013
 0.948165E-013
 0.948354E-013
 0.948517E-013
 0.948654E-013
 0.948763E-013
 0.948846E-013
 0.948900E-013
 0.948928E-013
 0.948928E-013
 0.948900E-013
 0.948846E-013
 0.948763E-013
 0.948654E-013
 0.948517E-013
 0.948354E-013
 0.948165E-013
 0.947949E-013
 0.947708E-013
 0.947442E-013
 0.947151E-013
 0.946836E-013
 0.946497E-013
 0.946135E-013
 0.945751E-013
 0.945344E-013
 0.944917E-013
 0.944470E-013
 0.944002E-013
 0.943516E-013
 0.943011E-013
 0.942489E-013
 0.941950E-013
 0.941395E-013
 0.940824E-013
 0.940239E-013
 0.939639E-013
 0.939027E-013
 0.938401E-013
 0.937764E-013
 0.937116E-013
 0.936457E-013
 0.935788E-013
 0.935109E-013
 0.934422E-013
 0.933726E-013
 0.933023E-013
 0.932312E-013
 0.931595E-013
 0.930871E-013
 0.930141E-013
 0.929405E-013
 0.928664E-013
 0.927919E-013
 0.927168E-013
 0.926414E-013
 0.925655E-013
 0.924893E-013
 0.924127E-013
 0.923358E-013
 0.922586E-013
 0.921810E-013
 0.921033E-013
 0.920252E-013
 0.919470E-013
 0.918682E-013
 0.917904E-013
 0.917077E-013
 0.916417E-013
 0.915215E-013
 0.915534E-013
 0.912089E-013
 0.916720E-013
 0.912089E-013
 0.907566E-013
 0.909420E-013
 0.907706E-013
 0.907639E-013
 0.906932E-013
 0.906442E-013
 0.905890E-013
 0.905356E-013
 0.904820E-013
 0.904286E-013
 0.903754E-013
 0.903224E-013
 0.902696E-013
 0.902170E-013
 0.901646E-013
 0.901125E-013
 0.900606E-013
 0.900090E-013
 0.899577E-013
 0.899067E-013
 0.898560E-013
 0.898057E-013
 0.897558E-013
 0.897062E-013
 0.896571E-013
 0.896085E-013
 0.895603E-013
 0.895127E-013
 0.894657E-013
 0.894192E-013
 0.893734E-013
 0.893283E-013
 0.892839E-013
 0.892403E-013
 0.891974E-013
 0.891555E-013
 0.891144E-013
 0.890743E-013
 0.890352E-013
 0.889971E-013
 0.889601E-013
 0.889243E-013
 0.888897E-013
 0.888564E-013
 0.888243E-013
 0.887936E-013
 0.887643E-013
 0.887365E-013
 0.887101E-013
 0.886853E-013
 0.886620E-013
 0.886404E-013
 0.886204E-013
 0.886021E-013
 0.885856E-013
 0.885708E-013
 0.885578E-013
 0.885466E-013
 0.885372E-013
 0.885297E-013
 0.885240E-013
 0.885203E-013
 0.885184E-013
 0.885184E-013
 0.885203E-013
 0.885240E-013
 0.885297E-013
 0.885372E-013
 0.885466E-013
 0.885578E-013
 0.885708E-013
 0.885856E-013
 0.886021E-013
 0.886204E-013
 0.886404E-013
 0.886620E-013
 0.886853E-013
 0.887101E-013
 0.887365E-013
 0.887643E-013
 0.887936E-013
 0.888243E-013
 0.888564E-013
 0.888897E-013
 0.889243E-013
 0.889602E-013
 0.889971E-013
 0.890352E-013
 0.890743E-013
 0.891144E-013
 0.891555E-013
 0.891974E-013
 0.892403E-013
 0.892839E-013
 0.893283E-013
 0.893734E-013
 0.894192E-013
 0.894657E-013
 0.895127E-013
 0.895604E-013
 0.896085E-013
 0.896571E-013
 0.897062E-013
 0.897558E-013
 0.898057E-013
 0.898560E-013
 0.899067E-013
 0.899577E-013
 0.900090E-013
 0.900606E-013
 0.901125E-013
 0.901647E-013
 0.902170E-013
 0.902696E-013
 0.903224E-013
 0.903754E-013
 0.904286E-013
 0.904820E-013
 0.905356E-013
 0.905890E-013
 0.906442E-013
 0.906932E-013
 0.907639E-013
 0.907706E-013
 0.909420E-013
 0.907566E-013
 0.912089E-013
 0.915534E-013
 0.909420E-013
 0.913324E-013
 0.911911E-013
 0.912891E-013
 0.912946E-013
 0.913310E-013
 0.913582E-013
 0.913877E-013
 0.914166E-013
 0.914455E-013
 0.914743E-013
 0.915029E-013
 0.915314E-013
 0.915598E-013
 0.915881E-013
 0.916163E-013
 0.916443E-013
 0.916722E-013
 0.916999E-013
 0.917275E-013
 0.917549E-013
 0.917821E-013
 0.918090E-013
 0.918358E-013
 0.918623E-013
 0.918886E-013
 0.919147E-013
 0.919404E-013
 0.919658E-013
 0.919909E-013
 0.920157E-013
 0.920401E-013
 0.920641E-013
 0.920877E-013
 0.921108E-013
 0.921335E-013
 0.921557E-013
 0.921774E-013
 0.921986E-013
 0.922192E-013
 0.922391E-013
 0.922585E-013
 0.922772E-013
 0.922953E-013
 0.923126E-013
 0.923292E-013
 0.923451E-013
 0.923602E-013
 0.923744E-013
 0.923879E-013
 0.924004E-013
 0.924121E-013
 0.924230E-013
 0.924328E-013
 0.924418E-013
 0.924498E-013
 0.924569E-013
 0.924629E-013
 0.924680E-013
 0.924720E-013
 0.924751E-013
 0.924771E-013
 0.924782E-013
 0.924782E-013
 0.924771E-013
 0.924751E-013
 0.924720E-013
 0.924680E-013
 0.924629E-013
 0.924568E-013
 0.924498E-013
 0.924418E-013
 0.924328E-013
 0.924229E-013
 0.924121E-013
 0.924004E-013
 0.923878E-013
 0.923744E-013
 0.923601E-013
 0.923451E-013
 0.923292E-013
 0.923126E-013
 0.922953E-013
 0.922772E-013
 0.922585E-013
 0.922391E-013
 0.922191E-013
 0.921986E-013
 0.921774E-013
 0.921557E-013
 0.921335E-013
 0.921108E-013
 0.920877E-013
 0.920641E-013
 0.920401E-013
 0.920157E-013
 0.919909E-013
 0.919658E-013
 0.919404E-013
 0.919146E-013
 0.918886E-013
 0.918623E-013
 0.918358E-013
 0.918090E-013
 0.917820E-013
 0.917549E-013
 0.917275E-013
 0.916999E-013
 0.916722E-013
 0.916443E-013
 0.916163E-013
 0.915881E-013
 0.915598E-013
 0.915314E-013
 0.915029E-013
 0.914742E-013
 0.914455E-013
 0.914166E-013
 0.913877E-013
 0.913582E-013
 0.913310E-013
 0.912946E-013
 0.912891E-013
 0.911911E-013
 0.913324E-013
 0.909420E-013
 0.915534E-013
 0.915215E-013
 0.907706E-013
 0.911911E-013
 0.909680E-013
 0.910406E-013
 0.909977E-013
 0.909939E-013
 0.909786E-013
 0.909663E-013
 0.909534E-013
 0.909406E-013
 0.909279E-013
 0.909152E-013
 0.909026E-013
 0.908900E-013
 0.908775E-013
 0.908650E-013
 0.908526E-013
 0.908403E-013
 0.908280E-013
 0.908158E-013
 0.908037E-013
 0.907917E-013
 0.907798E-013
 0.907679E-013
 0.907562E-013
 0.907445E-013
 0.907330E-013
 0.907216E-013
 0.907104E-013
 0.906993E-013
 0.906883E-013
 0.906775E-013
 0.906669E-013
 0.906565E-013
 0.906462E-013
 0.906362E-013
 0.906263E-013
 0.906167E-013
 0.906074E-013
 0.905983E-013
 0.905894E-013
 0.905808E-013
 0.905725E-013
 0.905646E-013
 0.905569E-013
 0.905495E-013
 0.905425E-013
 0.905358E-013
 0.905295E-013
 0.905236E-013
 0.905180E-013
 0.905128E-013
 0.905080E-013
 0.905036E-013
 0.904997E-013
 0.904961E-013
 0.904930E-013
 0.904903E-013
 0.904881E-013
 0.904863E-013
 0.904849E-013
 0.904840E-013
 0.904836E-013
 0.904836E-013
 0.904840E-013
 0.904849E-013
 0.904863E-013
 0.904881E-013
 0.904903E-013
 0.904930E-013
 0.904961E-013
 0.904997E-013
 0.905036E-013
 0.905080E-013
 0.905128E-013
 0.905180E-013
 0.905236E-013
 0.905295E-013
 0.905358E-013
 0.905425E-013
 0.905495E-013
 0.905569E-013
 0.905646E-013
 0.905726E-013
 0.905808E-013
 0.905894E-013
 0.905983E-013
 0.906074E-013
 0.906167E-013
 0.906263E-013
 0.906362E-013
 0.906462E-013
 0.906565E-013
 0.906669E-013
 0.906775E-013
 0.906883E-013
 0.906993E-013
 0.907104E-013
 0.907217E-013
 0.907330E-013
 0.907446E-013
 0.907562E-013
 0.907679E-013
 0.907798E-013
 0.907917E-013
 0.908037E-013
 0.908159E-013
 0.908280E-013
 0.908403E-013
 0.908526E-013
 0.908650E-013
 0.908775E-013
 0.908900E-013
 0.909026E-013
 0.909152E-013
 0.909279E-013
 0.909406E-013
 0.909534E-013
 0.909663E-013
 0.909786E-013
 0.909939E-013
 0.909977E-013
 0.910406E-013
 0.909680E-013
 0.911911E-013
 0.907706E-013
 0.915215E-013
 0.916417E-013
 0.907639E-013
 0.912891E-013
 0.910406E-013
 0.911492E-013
 0.911176E-013
 0.911336E-013
 0.911353E-013
 0.911409E-013
 0.911455E-013
 0.911503E-013
 0.911550E-013
 0.911597E-013
 0.911644E-013
 0.911691E-013
 0.911738E-013
 0.911784E-013
 0.911830E-013
 0.911876E-013
 0.911922E-013
 0.911967E-013
 0.912012E-013
 0.912057E-013
 0.912101E-013
 0.912145E-013
 0.912189E-013
 0.912232E-013
 0.912275E-013
 0.912318E-013
 0.912360E-013
 0.912401E-013
 0.912442E-013
 0.912482E-013
 0.912521E-013
 0.912560E-013
 0.912598E-013
 0.912636E-013
 0.912672E-013
 0.912708E-013
 0.912743E-013
 0.912777E-013
 0.912810E-013
 0.912842E-013
 0.912873E-013
 0.912902E-013
 0.912931E-013
 0.912958E-013
 0.912984E-013
 0.913009E-013
 0.913033E-013
 0.913055E-013
 0.913076E-013
 0.913095E-013
 0.913113E-013
 0.913129E-013
 0.913144E-013
 0.913157E-013
 0.913169E-013
 0.913179E-013
 0.913187E-013
 0.913194E-013
 0.913199E-013
 0.913202E-013
 0.913204E-013
 0.913204E-013
 0.913202E-013
 0.913199E-013
 0.913194E-013
 0.913187E-013
 0.913179E-013
 0.913169E-013
 0.913157E-013
 0.913144E-013
 0.913129E-013
 0.913113E-013
 0.913095E-013
 0.913076E-013
 0.913055E-013
 0.913033E-013
 0.913009E-013
 0.912984E-013
 0.912958E-013
 0.912931E-013
 0.912902E-013
 0.912873E-013
 0.912842E-013
 0.912810E-013
 0.912777E-013
 0.912743E-013
 0.912708E-013
 0.912672E-013
 0.912636E-013
 0.912598E-013
 0.912560E-013
 0.912521E-013
 0.912482E-013
 0.912442E-013
 0.912401E-013
 0.912359E-013
 0.912318E-013
 0.912275E-013
 0.912232E-013
 0.912189E-013
 0.912145E-013
 0.912101E-013
 0.912057E-013
 0.912012E-013
 0.911967E-013
 0.911922E-013
 0.911876E-013
 0.911830E-013
 0.911784E-013
 0.911738E-013
 0.911691E-013
 0.911644E-013
 0.911597E-013
 0.911550E-013
 0.911503E-013
 0.911455E-013
 0.911409E-013
 0.911353E-013
 0.911336E-013
 0.911176E-013
 0.911492E-013
 0.910406E-013
 0.912891E-013
 0.907639E-013
 0.916417E-013
 0.917077E-013
 0.906932E-013
 0.912946E-013
 0.909977E-013
 0.911176E-013
 0.910733E-013
 0.910849E-013
 0.910798E-013
 0.910791E-013
 0.910774E-013
 0.910759E-013
 0.910744E-013
 0.910729E-013
 0.910714E-013
 0.910699E-013
 0.910684E-013
 0.910669E-013
 0.910654E-013
 0.910640E-013
 0.910625E-013
 0.910611E-013
 0.910596E-013
 0.910582E-013
 0.910568E-013
 0.910554E-013
 0.910540E-013
 0.910526E-013
 0.910512E-013
 0.910498E-013
 0.910485E-013
 0.910472E-013
 0.910459E-013
 0.910446E-013
 0.910433E-013
 0.910421E-013
 0.910409E-013
 0.910397E-013
 0.910385E-013
 0.910374E-013
 0.910362E-013
 0.910352E-013
 0.910341E-013
 0.910331E-013
 0.910321E-013
 0.910312E-013
 0.910302E-013
 0.910294E-013
 0.910285E-013
 0.910277E-013
 0.910270E-013
 0.910263E-013
 0.910256E-013
 0.910250E-013
 0.910244E-013
 0.910239E-013
 0.910235E-013
 0.910230E-013
 0.910227E-013
 0.910223E-013
 0.910221E-013
 0.910219E-013
 0.910217E-013
 0.910216E-013
 0.910215E-013
 0.910215E-013
 0.910216E-013
 0.910217E-013
 0.910219E-013
 0.910221E-013
 0.910223E-013
 0.910227E-013
 0.910230E-013
 0.910235E-013
 0.910239E-013
 0.910244E-013
 0.910250E-013
 0.910256E-013
 0.910263E-013
 0.910270E-013
 0.910278E-013
 0.910285E-013
 0.910294E-013
 0.910303E-013
 0.910312E-013
 0.910321E-013
 0.910331E-013
 0.910341E-013
 0.910352E-013
 0.910363E-013
 0.910374E-013
 0.910385E-013
 0.910397E-013
 0.910409E-013
 0.910421E-013
 0.910433E-013
 0.910446E-013
 0.910459E-013
 0.910472E-013
 0.910485E-013
 0.910498E-013
 0.910512E-013
 0.910526E-013
 0.910540E-013
 0.910554E-013
 0.910568E-013
 0.910582E-013
 0.910596E-013
 0.910611E-013
 0.910625E-013
 0.910640E-013
 0.910654E-013
 0.910669E-013
 0.910684E-013
 0.910699E-013
 0.910714E-013
 0.910729E-013
 0.910744E-013
 0.910759E-013
 0.910774E-013
 0.910791E-013
 0.910798E-013
 0.910849E-013
 0.910733E-013
 0.911176E-013
 0.909977E-013
 0.912946E-013
 0.906932E-013
 0.917077E-013
 0.917904E-013
 0.906442E-013
 0.913310E-013
 0.909939E-013
 0.911336E-013
 0.910849E-013
 0.911004E-013
 0.910967E-013
 0.910981E-013
 0.910984E-013
 0.910988E-013
 0.910992E-013
 0.910997E-013
 0.911001E-013
 0.911005E-013
 0.911009E-013
 0.911013E-013
 0.911018E-013
 0.911022E-013
 0.911026E-013
 0.911030E-013
 0.911034E-013
 0.911038E-013
 0.911042E-013
 0.911046E-013
 0.911050E-013
 0.911054E-013
 0.911058E-013
 0.911061E-013
 0.911065E-013
 0.911069E-013
 0.911073E-013
 0.911076E-013
 0.911080E-013
 0.911083E-013
 0.911087E-013
 0.911090E-013
 0.911093E-013
 0.911097E-013
 0.911100E-013
 0.911103E-013
 0.911106E-013
 0.911109E-013
 0.911112E-013
 0.911114E-013
 0.911117E-013
 0.911119E-013
 0.911122E-013
 0.911124E-013
 0.911126E-013
 0.911128E-013
 0.911130E-013
 0.911132E-013
 0.911134E-013
 0.911135E-013
 0.911136E-013
 0.911138E-013
 0.911139E-013
 0.911140E-013
 0.911140E-013
 0.911141E-013
 0.911141E-013
 0.911142E-013
 0.911142E-013
 0.911142E-013
 0.911142E-013
 0.911141E-013
 0.911141E-013
 0.911140E-013
 0.911140E-013
 0.911139E-013
 0.911138E-013
 0.911136E-013
 0.911135E-013
 0.911134E-013
 0.911132E-013
 0.911130E-013
 0.911128E-013
 0.911126E-013
 0.911124E-013
 0.911122E-013
 0.911119E-013
 0.911117E-013
 0.911114E-013
 0.911112E-013
 0.911109E-013
 0.911106E-013
 0.911103E-013
 0.911100E-013
 0.911097E-013
 0.911093E-013
 0.911090E-013
 0.911087E-013
 0.911083E-013
 0.911080E-013
 0.911076E-013
 0.911073E-013
 0.911069E-013
 0.911065E-013
 0.911061E-013
 0.911058E-013
 0.911054E-013
 0.911050E-013
 0.911046E-013
 0.911042E-013
 0.911038E-013
 0.911034E-013
 0.911030E-013
 0.911026E-013
 0.911022E-013
 0.911018E-013
 0.911013E-013
 0.911009E-013
 0.911005E-013
 0.911001E-013
 0.910997E-013
 0.910992E-013
 0.910988E-013
 0.910984E-013
 0.910981E-013
 0.910967E-013
 0.911004E-013
 0.910849E-013
 0.911336E-013
 0.909939E-013
 0.913310E-013
 0.906442E-013
 0.917904E-013
 0.918682E-013
 0.905890E-013
 0.913582E-013
 0.909786E-013
 0.911353E-013
 0.910798E-013
 0.910967E-013
 0.910920E-013
 0.910930E-013
 0.910927E-013
 0.910926E-013
 0.910925E-013
 0.910924E-013
 0.910923E-013
 0.910922E-013
 0.910921E-013
 0.910920E-013
 0.910919E-013
 0.910918E-013
 0.910917E-013
 0.910916E-013
 0.910915E-013
 0.910914E-013
 0.910913E-013
 0.910912E-013
 0.910911E-013
 0.910910E-013
 0.910909E-013
 0.910908E-013
 0.910907E-013
 0.910906E-013
 0.910905E-013
 0.910905E-013
 0.910904E-013
 0.910903E-013
 0.910902E-013
 0.910901E-013
 0.910900E-013
 0.910900E-013
 0.910899E-013
 0.910898E-013
 0.910898E-013
 0.910897E-013
 0.910896E-013
 0.910896E-013
 0.910895E-013
 0.910894E-013
 0.910894E-013
 0.910893E-013
 0.910893E-013
 0.910892E-013
 0.910892E-013
 0.910892E-013
 0.910891E-013
 0.910891E-013
 0.910891E-013
 0.910890E-013
 0.910890E-013
 0.910890E-013
 0.910890E-013
 0.910890E-013
 0.910890E-013
 0.910890E-013
 0.910890E-013
 0.910890E-013
 0.910890E-013
 0.910890E-013
 0.910890E-013
 0.910890E-013
 0.910890E-013
 0.910890E-013
 0.910890E-013
 0.910891E-013
 0.910891E-013
 0.910891E-013
 0.910892E-013
 0.910892E-013
 0.910892E-013
 0.910893E-013
 0.910893E-013
 0.910894E-013
 0.910894E-013
 0.910895E-013
 0.910896E-013
 0.910896E-013
 0.910897E-013
 0.910898E-013
 0.910898E-013
 0.910899E-013
 0.910900E-013
 0.910900E-013
 0.910901E-013
 0.910902E-013
 0.910903E-013
 0.910904E-013
 0.910905E-013
 0.910905E-013
 0.910906E-013
 0.910907E-013
 0.910908E-013
 0.910909E-013
 0.910910E-013
 0.910911E-013
 0.910912E-013
 0.910913E-013
 0.910914E-013
 0.910915E-013
 0.910916E-013
 0.910917E-013
 0.910918E-013
 0.910919E-013
 0.910920E-013
 0.910921E-013
 0.910922E-013
 0.910923E-013
 0.910924E-013
 0.910925E-013
 0.910926E-013
 0.910927E-013
 0.910930E-013
 0.910920E-013
 0.910967E-013
 0.910798E-013
 0.911353E-013
 0.909786E-013
 0.913582E-013
 0.905890E-013
 0.918682E-013
 0.919470E-013
 0.905356E-013
 0.913877E-013
 0.909663E-013
 0.911409E-013
 0.910791E-013
 0.910981E-013
 0.910930E-013
 0.910943E-013
 0.910940E-013
 0.910941E-013
 0.910941E-013
 0.910942E-013
 0.910942E-013
 0.910942E-013
 0.910942E-013
 0.910943E-013
 0.910943E-013
 0.910943E-013
 0.910943E-013
 0.910943E-013
 0.910944E-013
 0.910944E-013
 0.910944E-013
 0.910944E-013
 0.910945E-013
 0.910945E-013
 0.910945E-013
 0.910945E-013
 0.910946E-013
 0.910946E-013
 0.910946E-013
 0.910946E-013
 0.910947E-013
 0.910947E-013
 0.910947E-013
 0.910947E-013
 0.910947E-013
 0.910948E-013
 0.910948E-013
 0.910948E-013
 0.910948E-013
 0.910949E-013
 0.910949E-013
 0.910949E-013
 0.910949E-013
 0.910949E-013
 0.910950E-013
 0.910950E-013
 0.910950E-013
 0.910950E-013
 0.910950E-013
 0.910950E-013
 0.910951E-013
 0.910951E-013
 0.910951E-013
 0.910951E-013
 0.910951E-013
 0.910951E-013
 0.910951E-013
 0.910951E-013
 0.910951E-013
 0.910951E-013
 0.910951E-013
 0.910951E-013
 0.910951E-013
 0.910951E-013
 0.910951E-013
 0.910951E-013
 0.910951E-013
 0.910951E-013
 0.910951E-013
 0.910951E-013
 0.910951E-013
 0.910951E-013
 0.910950E-013
 0.910950E-013
 0.910950E-013
 0.910950E-013
 0.910950E-013
 0.910950E-013
 0.910949E-013
 0.910949E-013
 0.910949E-013
 0.910949E-013
 0.910949E-013
 0.910948E-013
 0.910948E-013
 0.910948E-013
 0.910948E-013
 0.910947E-013
 0.910947E-013
 0.910947E-013
 0.910947E-013
 0.910947E-013
 0.910946E-013
 0.910946E-013
 0.910946E-013
 0.910946E-013
 0.910945E-013
 0.910945E-013
 0.910945E-013
 0.910945E-013
 0.910944E-013
 0.910944E-013
 0.910944E-013
 0.910944E-013
 0.910943E-013
 0.910943E-013
 0.910943E-013
 0.910943E-013
 0.910943E-013
 0.910942E-013
 0.910942E-013
 0.910942E-013
 0.910942E-013
 0.910941E-013
 0.910941E-013
 0.910940E-013
 0.910943E-013
 0.910930E-013
 0.910981E-013
 0.910791E-013
 0.911409E-013
 0.909663E-013
 0.913877E-013
 0.905356E-013
 0.919470E-013
 0.920252E-013
 0.904820E-013
 0.914166E-013
 0.909534E-013
 0.911455E-013
 0.910774E-013
 0.910984E-013
 0.910927E-013
 0.910940E-013
 0.910937E-013
 0.910938E-013
 0.910938E-013
 0.910938E-013
 0.910938E-013
 0.910938E-013
 0.910938E-013
 0.910938E-013
 0.910938E-013
 0.910937E-013
 0.910937E-013
 0.910937E-013
 0.910937E-013
 0.910937E-013
 0.910937E-013
 0.910937E-013
 0.910937E-013
 0.910937E-013
 0.910937E-013
 0.910937E-013
 0.910937E-013
 0.910937E-013
 0.910937E-013
 0.910937E-013
 0.910937E-013
 0.910937E-013
 0.910937E-013
 0.910937E-013
 0.910937E-013
 0.910937E-013
 0.910937E-013
 0.910937E-013
 0.910937E-013
 0.910937E-013
 0.910937E-013
 0.910937E-013
 0.910938E-013
 0.910938E-013
 0.910938E-013
 0.910938E-013
 0.910938E-013
 0.910938E-013
 0.910938E-013
 0.910938E-013
 0.910938E-013
 0.910938E-013
 0.910938E-013
 0.910938E-013
 0.910938E-013
 0.910938E-013
 0.910938E-013
 0.910938E-013
 0.910938E-013
 0.910938E-013
 0.910938E-013
 0.910938E-013
 0.910938E-013
 0.910938E-013
 0.910938E-013
 0.910938E-013
 0.910938E-013
 0.910938E-013
 0.910938E-013
 0.910938E-013
 0.910938E-013
 0.910938E-013
 0.910938E-013
 0.910938E-013
 0.910938E-013
 0.910938E-013
 0.910938E-013
 0.910938E-013
 0.910938E-013
 0.910938E-013
 0.910937E-013
 0.910937E-013
 0.910937E-013
 0.910937E-013
 0.910937E-013
 0.910937E-013
 0.910937E-013
 0.910937E-013
 0.910937E-013
 0.910937E-013
 0.910937E-013
 0.910937E-013
 0.910937E-013
 0.910937E-013
 0.910937E-013
 0.910937E-013
 0.910937E-013
 0.910937E-013
 0.910937E-013
 0.910937E-013
 0.910937E-013
 0.910937E-013
 0.910937E-013
 0.910937E-013
 0.910937E-013
 0.910937E-013
 0.910937E-013
 0.910938E-013
 0.910938E-013
 0.910938E-013
 0.910938E-013
 0.910938E-013
 0.910938E-013
 0.910938E-013
 0.910938E-013
 0.910937E-013
 0.910940E-013
 0.910927E-013
 0.910984E-013
 0.910774E-013
 0.911455E-013
 0.909534E-013
 0.914166E-013
 0.904820E-013
 0.920252E-013
 0.921033E-013
 0.904286E-013
 0.914455E-013
 0.909406E-013
 0.911503E-013
 0.910759E-013
 0.910988E-013
 0.910926E-013
 0.910941E-013
 0.910938E-013
 0.910939E-013
 0.910938E-013
 0.910939E-013
 0.910939E-013
 0.910939E-013
 0.910939E-013
 0.910939E-013
 0.910939E-013
 0.910939E-013
 0.910939E-013
 0.910939E-013
 0.910939E-013
 0.910939E-013
 0.910939E-013
 0.910939E-013
 0.910939E-013
 0.910939E-013
 0.910939E-013
 0.910939E-013
 0.910939E-013
 0.910939E-013
 0.910939E-013
 0.910939E-013
 0.910939E-013
 0.910939E-013
 0.910939E-013
 0.910939E-013
 0.910939E-013
 0.910940E-013
 0.910940E-013
 0.910940E-013
 0.910940E-013
 0.910940E-013
 0.910940E-013
 0.910940E-013
 0.910940E-013
 0.910940E-013
 0.910940E-013
 0.910940E-013