# vtk DataFile Version 3.0
Solution data
ASCII
DATASET STRUCTURED_GRID
DIMENSIONS 128 128 1
POINTS 16384  double
      0.000004      0.000004      0.000000
      0.000012      0.000004      0.000000
      0.000020      0.000004      0.000000
      0.000027      0.000004      0.000000
      0.000035      0.000004      0.000000
      0.000043      0.000004      0.000000
      0.000051      0.000004      0.000000
      0.000059      0.000004      0.000000
      0.000066      0.000004      0.000000
      0.000074      0.000004      0.000000
      0.000082      0.000004      0.000000
      0.000090      0.000004      0.000000
      0.000098      0.000004      0.000000
      0.000105      0.000004      0.000000
      0.000113      0.000004      0.000000
      0.000121      0.000004      0.000000
      0.000129      0.000004      0.000000
      0.000137      0.000004      0.000000
      0.000145      0.000004      0.000000
      0.000152      0.000004      0.000000
      0.000160      0.000004      0.000000
      0.000168      0.000004      0.000000
      0.000176      0.000004      0.000000
      0.000184      0.000004      0.000000
      0.000191      0.000004      0.000000
      0.000199      0.000004      0.000000
      0.000207      0.000004      0.000000
      0.000215      0.000004      0.000000
      0.000223      0.000004      0.000000
      0.000230      0.000004      0.000000
      0.000238      0.000004      0.000000
      0.000246      0.000004      0.000000
      0.000254      0.000004      0.000000
      0.000262      0.000004      0.000000
      0.000270      0.000004      0.000000
      0.000277      0.000004      0.000000
      0.000285      0.000004      0.000000
      0.000293      0.000004      0.000000
      0.000301      0.000004      0.000000
      0.000309      0.000004      0.000000
      0.000316      0.000004      0.000000
      0.000324      0.000004      0.000000
      0.000332      0.000004      0.000000
      0.000340      0.000004      0.000000
      0.000348      0.000004      0.000000
      0.000355      0.000004      0.000000
      0.000363      0.000004      0.000000
      0.000371      0.000004      0.000000
      0.000379      0.000004      0.000000
      0.000387      0.000004      0.000000
      0.000395      0.000004      0.000000
      0.000402      0.000004      0.000000
      0.000410      0.000004      0.000000
      0.000418      0.000004      0.000000
      0.000426      0.000004      0.000000
      0.000434      0.000004      0.000000
      0.000441      0.000004      0.000000
      0.000449      0.000004      0.000000
      0.000457      0.000004      0.000000
      0.000465      0.000004      0.000000
      0.000473      0.000004      0.000000
      0.000480      0.000004      0.000000
      0.000488      0.000004      0.000000
      0.000496      0.000004      0.000000
      0.000504      0.000004      0.000000
      0.000512      0.000004      0.000000
      0.000520      0.000004      0.000000
      0.000527      0.000004      0.000000
      0.000535      0.000004      0.000000
      0.000543      0.000004      0.000000
      0.000551      0.000004      0.000000
      0.000559      0.000004      0.000000
      0.000566      0.000004      0.000000
      0.000574      0.000004      0.000000
      0.000582      0.000004      0.000000
      0.000590      0.000004      0.000000
      0.000598      0.000004      0.000000
      0.000605      0.000004      0.000000
      0.000613      0.000004      0.000000
      0.000621      0.000004      0.000000
      0.000629      0.000004      0.000000
      0.000637      0.000004      0.000000
      0.000645      0.000004      0.000000
      0.000652      0.000004      0.000000
      0.000660      0.000004      0.000000
      0.000668      0.000004      0.000000
      0.000676      0.000004      0.000000
      0.000684      0.000004      0.000000
      0.000691      0.000004      0.000000
      0.000699      0.000004      0.000000
      0.000707      0.000004      0.000000
      0.000715      0.000004      0.000000
      0.000723      0.000004      0.000000
      0.000730      0.000004      0.000000
      0.000738      0.000004      0.000000
      0.000746      0.000004      0.000000
      0.000754      0.000004      0.000000
      0.000762      0.000004      0.000000
      0.000770      0.000004      0.000000
      0.000777      0.000004      0.000000
      0.000785      0.000004      0.000000
      0.000793      0.000004      0.000000
      0.000801      0.000004      0.000000
      0.000809      0.000004      0.000000
      0.000816      0.000004      0.000000
      0.000824      0.000004      0.000000
      0.000832      0.000004      0.000000
      0.000840      0.000004      0.000000
      0.000848      0.000004      0.000000
      0.000855      0.000004      0.000000
      0.000863      0.000004      0.000000
      0.000871      0.000004      0.000000
      0.000879      0.000004      0.000000
      0.000887      0.000004      0.000000
      0.000895      0.000004      0.000000
      0.000902      0.000004      0.000000
      0.000910      0.000004      0.000000
      0.000918      0.000004      0.000000
      0.000926      0.000004      0.000000
      0.000934      0.000004      0.000000
      0.000941      0.000004      0.000000
      0.000949      0.000004      0.000000
      0.000957      0.000004      0.000000
      0.000965      0.000004      0.000000
      0.000973      0.000004      0.000000
      0.000980      0.000004      0.000000
      0.000988      0.000004      0.000000
      0.000996      0.000004      0.000000
      0.000004      0.000012      0.000000
      0.000012      0.000012      0.000000
      0.000020      0.000012      0.000000
      0.000027      0.000012      0.000000
      0.000035      0.000012      0.000000
      0.000043      0.000012      0.000000
      0.000051      0.000012      0.000000
      0.000059      0.000012      0.000000
      0.000066      0.000012      0.000000
      0.000074      0.000012      0.000000
      0.000082      0.000012      0.000000
      0.000090      0.000012      0.000000
      0.000098      0.000012      0.000000
      0.000105      0.000012      0.000000
      0.000113      0.000012      0.000000
      0.000121      0.000012      0.000000
      0.000129      0.000012      0.000000
      0.000137      0.000012      0.000000
      0.000145      0.000012      0.000000
      0.000152      0.000012      0.000000
      0.000160      0.000012      0.000000
      0.000168      0.000012      0.000000
      0.000176      0.000012      0.000000
      0.000184      0.000012      0.000000
      0.000191      0.000012      0.000000
      0.000199      0.000012      0.000000
      0.000207      0.000012      0.000000
      0.000215      0.000012      0.000000
      0.000223      0.000012      0.000000
      0.000230      0.000012      0.000000
      0.000238      0.000012      0.000000
      0.000246      0.000012      0.000000
      0.000254      0.000012      0.000000
      0.000262      0.000012      0.000000
      0.000270      0.000012      0.000000
      0.000277      0.000012      0.000000
      0.000285      0.000012      0.000000
      0.000293      0.000012      0.000000
      0.000301      0.000012      0.000000
      0.000309      0.000012      0.000000
      0.000316      0.000012      0.000000
      0.000324      0.000012      0.000000
      0.000332      0.000012      0.000000
      0.000340      0.000012      0.000000
      0.000348      0.000012      0.000000
      0.000355      0.000012      0.000000
      0.000363      0.000012      0.000000
      0.000371      0.000012      0.000000
      0.000379      0.000012      0.000000
      0.000387      0.000012      0.000000
      0.000395      0.000012      0.000000
      0.000402      0.000012      0.000000
      0.000410      0.000012      0.000000
      0.000418      0.000012      0.000000
      0.000426      0.000012      0.000000
      0.000434      0.000012      0.000000
      0.000441      0.000012      0.000000
      0.000449      0.000012      0.000000
      0.000457      0.000012      0.000000
      0.000465      0.000012      0.000000
      0.000473      0.000012      0.000000
      0.000480      0.000012      0.000000
      0.000488      0.000012      0.000000
      0.000496      0.000012      0.000000
      0.000504      0.000012      0.000000
      0.000512      0.000012      0.000000
      0.000520      0.000012      0.000000
      0.000527      0.000012      0.000000
      0.000535      0.000012      0.000000
      0.000543      0.000012      0.000000
      0.000551      0.000012      0.000000
      0.000559      0.000012      0.000000
      0.000566      0.000012      0.000000
      0.000574      0.000012      0.000000
      0.000582      0.000012      0.000000
      0.000590      0.000012      0.000000
      0.000598      0.000012      0.000000
      0.000605      0.000012      0.000000
      0.000613      0.000012      0.000000
      0.000621      0.000012      0.000000
      0.000629      0.000012      0.000000
      0.000637      0.000012      0.000000
      0.000645      0.000012      0.000000
      0.000652      0.000012      0.000000
      0.000660      0.000012      0.000000
      0.000668      0.000012      0.000000
      0.000676      0.000012      0.000000
      0.000684      0.000012      0.000000
      0.000691      0.000012      0.000000
      0.000699      0.000012      0.000000
      0.000707      0.000012      0.000000
      0.000715      0.000012      0.000000
      0.000723      0.000012      0.000000
      0.000730      0.000012      0.000000
      0.000738      0.000012      0.000000
      0.000746      0.000012      0.000000
      0.000754      0.000012      0.000000
      0.000762      0.000012      0.000000
      0.000770      0.000012      0.000000
      0.000777      0.000012      0.000000
      0.000785      0.000012      0.000000
[...]
POINT_DATA 16384
SCALARS rhoe double
LOOKUP_TABLE default
 0.912276E-013
 0.912122E-013
 0.912747E-013
 0.913315E-013
 0.913885E-013
 0.914455E-013
 0.915025E-013
 0.915593E-013
 0.916162E-013
 0.916729E-013
 0.917296E-013
 0.917863E-013
 0.918428E-013
 0.918993E-013
 0.919557E-013
 0.920119E-013
 0.920681E-013
 0.921241E-013
 0.921799E-013
 0.922356E-013
 0.922911E-013
 0.923463E-013
 0.924013E-013
 0.924561E-013
 0.925105E-013
 0.925646E-013
 0.926183E-013
 0.926716E-013
 0.927245E-013
 0.927768E-013
 0.928286E-013
 0.928799E-013
 0.929305E-013
 0.929804E-013
 0.930296E-013
 0.930780E-013
 0.931255E-013
 0.931721E-013
 0.932178E-013
 0.932624E-013
 0.933059E-013
 0.933482E-013
 0.933893E-013
 0.934291E-013
 0.934676E-013
 0.935046E-013
 0.935401E-013
 0.935741E-013
 0.936065E-013
 0.936372E-013
 0.936661E-013
 0.936932E-013
 0.937185E-013
 0.937419E-013
 0.937633E-013
 0.937827E-013
 0.938001E-013
 0.938154E-013
 0.938285E-013
 0.938396E-013
 0.938484E-013
 0.938550E-013
 0.938595E-013
 0.938617E-013
 0.938617E-013
 0.938595E-013
 0.938550E-013
 0.938484E-013
 0.938395E-013
 0.938285E-013
 0.938153E-013
 0.938001E-013
 0.937827E-013
 0.937633E-013
 0.937418E-013
 0.937185E-013
 0.936932E-013
 0.936660E-013
 0.936371E-013
 0.936064E-013
 0.935741E-013
 0.935401E-013
 0.935045E-013
 0.934675E-013
 0.934290E-013
 0.933892E-013
 0.933481E-013
 0.933058E-013
 0.932623E-013
 0.932177E-013
 0.931720E-013
 0.931254E-013
 0.930779E-013
 0.930295E-013
 0.929803E-013
 0.929304E-013
 0.928798E-013
 0.928285E-013
 0.927767E-013
 0.927244E-013
 0.926715E-013
 0.926182E-013
 0.925645E-013
 0.925104E-013
 0.924560E-013
 0.924012E-013
 0.923462E-013
 0.922910E-013
 0.922355E-013
 0.921798E-013
 0.921240E-013
 0.920680E-013
 0.920119E-013
 0.919556E-013
 0.918992E-013
 0.918428E-013
 0.917862E-013
 0.917296E-013
 0.916729E-013
 0.916161E-013
 0.915593E-013
 0.915024E-013
 0.914455E-013
 0.913885E-013
 0.913315E-013
 0.912747E-013
 0.912122E-013
 0.912276E-013
 0.912122E-013
 0.910747E-013
 0.910802E-013
 0.910751E-013
 0.910706E-013
 0.910661E-013
 0.910616E-013
 0.910571E-013
 0.910526E-013
 0.910481E-013
 0.910436E-013
 0.910391E-013
 0.910346E-013
 0.910302E-013
 0.910257E-013
 0.910213E-013
 0.910169E-013
 0.910125E-013
 0.910081E-013
 0.910037E-013
 0.909994E-013
 0.909950E-013
 0.909907E-013
 0.909864E-013
 0.909822E-013
 0.909780E-013
 0.909738E-013
 0.909696E-013
 0.909655E-013
 0.909614E-013
 0.909574E-013
 0.909535E-013
 0.909496E-013
 0.909457E-013
 0.909419E-013
 0.909382E-013
 0.909345E-013
 0.909310E-013
 0.909275E-013
 0.909241E-013
 0.909208E-013
 0.909175E-013
 0.909144E-013
 0.909114E-013
 0.909085E-013
 0.909057E-013
 0.909030E-013
 0.909005E-013
 0.908980E-013
 0.908957E-013
 0.908936E-013
 0.908915E-013
 0.908896E-013
 0.908879E-013
 0.908863E-013
 0.908849E-013
 0.908836E-013
 0.908824E-013
 0.908815E-013
 0.908806E-013
 0.908800E-013
 0.908795E-013
 0.908792E-013
 0.908790E-013
 0.908790E-013
 0.908792E-013
 0.908795E-013
 0.908800E-013
 0.908806E-013
 0.908815E-013
 0.908824E-013
 0.908836E-013
 0.908849E-013
 0.908863E-013
 0.908879E-013
 0.908896E-013
 0.908915E-013
 0.908936E-013
 0.908957E-013
 0.908980E-013
 0.909004E-013
 0.909030E-013
 0.909057E-013
 0.909085E-013
 0.909114E-013
 0.909144E-013
 0.909175E-013
 0.909207E-013
 0.909241E-013
 0.909275E-013
 0.909310E-013
 0.909345E-013
 0.909382E-013
 0.909419E-013
 0.909457E-013
 0.909495E-013
 0.909534E-013
 0.909574E-013
 0.909614E-013
 0.909655E-013
 0.909696E-013
 0.909738E-013
 0.909779E-013
 0.909822E-013
 0.909864E-013
 0.909907E-013
 0.909950E-013
 0.909993E-013
 0.910037E-013
 0.910081E-013
 0.910125E-013
 0.910169E-013
 0.910213E-013
 0.910257E-013
 0.910302E-013
 0.910346E-013
 0.910391E-013
 0.910436E-013
 0.910481E-013
 0.910526E-013
 0.910571E-013
 0.910616E-013
 0.910661E-013
 0.910706E-013
 0.910751E-013
 0.910802E-013
 0.910746E-013
 0.912122E-013
 0.912747E-013
 0.910802E-013
 0.910953E-013
 0.910948E-013
 0.910951E-013
 0.910953E-013
 0.910956E-013
 0.910958E-013
 0.910960E-013
 0.910963E-013
 0.910965E-013
 0.910968E-013
 0.910970E-013
 0.910973E-013
 0.910975E-013
 0.910978E-013
 0.910980E-013
 0.910983E-013
 0.910985E-013
 0.910988E-013
 0.910990E-013
 0.910993E-013
 0.910995E-013
 0.910998E-013
 0.911000E-013
 0.911003E-013
 0.911005E-013
 0.911008E-013
 0.911011E-013
 0.911013E-013
 0.911016E-013
 0.911019E-013
 0.911021E-013
 0.911024E-013
 0.911027E-013
 0.911030E-013
 0.911032E-013
 0.911035E-013
 0.911038E-013
 0.911041E-013
 0.911043E-013
 0.911046E-013
 0.911049E-013
 0.911051E-013
 0.911054E-013
 0.911056E-013
 0.911059E-013
 0.911061E-013
 0.911064E-013
 0.911066E-013
 0.911068E-013
 0.911070E-013
 0.911072E-013
 0.911074E-013
 0.911076E-013
 0.911077E-013
 0.911078E-013
 0.911080E-013
 0.911081E-013
 0.911082E-013
 0.911082E-013
 0.911083E-013
 0.911083E-013
 0.911083E-013
 0.911083E-013
 0.911083E-013
 0.911083E-013
 0.911082E-013
 0.911082E-013
 0.911081E-013
 0.911080E-013
 0.911078E-013
 0.911077E-013
 0.911076E-013
 0.911074E-013
 0.911072E-013
 0.911070E-013
 0.911068E-013
 0.911066E-013
 0.911064E-013
 0.911061E-013
 0.911059E-013
 0.911056E-013
 0.911054E-013
 0.911051E-013
 0.911049E-013
 0.911046E-013
 0.911043E-013
 0.911041E-013
 0.911038E-013
 0.911035E-013
 0.911032E-013
 0.911030E-013
 0.911027E-013
 0.911024E-013
 0.911021E-013
 0.911019E-013
 0.911016E-013
 0.911013E-013
 0.911011E-013
 0.911008E-013
 0.911005E-013
 0.911003E-013
 0.911000E-013
 0.910998E-013
 0.910995E-013
 0.910993E-013
 0.910990E-013
 0.910988E-013
 0.910985E-013
 0.910983E-013
 0.910980E-013
 0.910978E-013
 0.910975E-013
 0.910973E-013
 0.910970E-013
 0.910968E-013
 0.910965E-013
 0.910963E-013
 0.910960E-013
 0.910958E-013
 0.910956E-013
 0.910953E-013
 0.910951E-013
 0.910948E-013
 0.910953E-013
 0.910802E-013
 0.912747E-013
 0.913315E-013
 0.910751E-013
 0.910948E-013
 0.910938E-013
 0.910938E-013
 0.910938E-013
 0.910938E-013
 0.910938E-013
 0.910938E-013
 0.910938E-013
 0.910938E-013
 0.910938E-013
 0.910938E-013
 0.910938E-013
 0.910938E-013
 0.910938E-013
 0.910938E-013
 0.910938E-013
 0.910938E-013
 0.910938E-013
 0.910938E-013
 0.910938E-013
 0.910939E-013
 0.910939E-013
 0.910939E-013
 0.910940E-013
 0.910940E-013
 0.910940E-013
 0.910941E-013
 0.910941E-013
 0.910942E-013
 0.910942E-013
 0.910943E-013
 0.910944E-013
 0.910945E-013
 0.910945E-013
 0.910946E-013
 0.910947E-013
 0.910948E-013
 0.910949E-013
 0.910950E-013
 0.910951E-013
 0.910952E-013
 0.910953E-013
 0.910955E-013
 0.910956E-013
 0.910957E-013
 0.910958E-013
 0.910959E-013
 0.910960E-013
 0.910962E-013
 0.910963E-013
 0.910964E-013
 0.910965E-013
 0.910966E-013
 0.910966E-013
 0.910967E-013
 0.910968E-013
 0.910969E-013
 0.910969E-013
 0.910969E-013
 0.910970E-013
 0.910970E-013
 0.910970E-013
 0.910970E-013
 0.910970E-013
 0.910970E-013
 0.910969E-013
 0.910969E-013
 0.910969E-013
 0.910968E-013
 0.910967E-013
 0.910966E-013
 0.910966E-013
 0.910965E-013
 0.910964E-013
 0.910963E-013
 0.910962E-013
 0.910960E-013
 0.910959E-013
 0.910958E-013
 0.910957E-013
 0.910956E-013
 0.910955E-013
 0.910953E-013
 0.910952E-013
 0.910951E-013
 0.910950E-013
 0.910949E-013
 0.910948E-013
 0.910947E-013
 0.910946E-013
 0.910945E-013
 0.910945E-013
 0.910944E-013
 0.910943E-013
 0.910942E-013
 0.910942E-013
 0.910941E-013
 0.910941E-013
 0.910940E-013
 0.910940E-013
 0.910939E-013
 0.910939E-013
 0.910939E-013
 0.910939E-013
 0.910938E-013
 0.910938E-013
 0.910938E-013
 0.910938E-013
 0.910938E-013
 0.910938E-013
 0.910938E-013
 0.910938E-013
 0.910938E-013
 0.910938E-013
 0.910938E-013
 0.910938E-013
 0.910938E-013
 0.910938E-013
 0.910938E-013
 0.910938E-013
 0.910938E-013
 0.910938E-013
 0.910938E-013
 0.910948E-013
 0.910751E-013
 0.913315E-013
 0.913885E-013
 0.910706E-013
 0.910951E-013
 0.910938E-013
 0.910939E-013
 0.910939E-013
 0.910939E-013
 0.910939E-013
 0.910939E-013
 0.910939E-013
 0.910939E-013
 0.910939E-013
 0.910939E-013
 0.910939E-013
 0.910939E-013
 0.910939E-013
 0.910940E-013
 0.910940E-013
 0.910940E-013
 0.910940E-013
 0.910941E-013
 0.910941E-013
 0.910941E-013
 0.910942E-013
 0.910942E-013
 0.910943E-013
 0.910943E-013
 0.910944E-013
 0.910945E-013
 0.910945E-013
 0.910946E-013
 0.910947E-013
 0.910948E-013
 0.910949E-013
 0.910950E-013
 0.910951E-013
 0.910952E-013
 0.910953E-013
 0.910954E-013
 0.910956E-013
 0.910957E-013
 0.910959E-013
 0.910960E-013
 0.910961E-013
 0.910963E-013
 0.910964E-013
 0.910966E-013
 0.910967E-013
 0.910969E-013
 0.910970E-013
 0.910972E-013
 0.910973E-013
 0.910974E-013
 0.910975E-013
 0.910977E-013
 0.910978E-013
 0.910979E-013
 0.910980E-013
 0.910980E-013
 0.910981E-013
 0.910982E-013
 0.910982E-013
 0.910982E-013
 0.910982E-013
 0.910982E-013
 0.910982E-013
 0.910982E-013
 0.910982E-013
 0.910981E-013
 0.910980E-013
 0.910980E-013
 0.910979E-013
 0.910978E-013
 0.910977E-013
 0.910975E-013
 0.910974E-013
 0.910973E-013
 0.910972E-013
 0.910970E-013
 0.910969E-013
 0.910967E-013
 0.910966E-013
 0.910964E-013
 0.910963E-013
 0.910961E-013
 0.910960E-013
 0.910958E-013
 0.910957E-013
 0.910956E-013
 0.910954E-013
 0.910953E-013
 0.910952E-013
 0.910951E-013
 0.910950E-013
 0.910949E-013
 0.910948E-013
 0.910947E-013
 0.910946E-013
 0.910945E-013
 0.910945E-013
 0.910944E-013
 0.910943E-013
 0.910943E-013
 0.910942E-013
 0.910942E-013
 0.910941E-013
 0.910941E-013
 0.910941E-013
 0.910940E-013
 0.910940E-013
 0.910940E-013
 0.910940E-013
 0.910939E-013
 0.910939E-013
 0.910939E-013
 0.910939E-013
 0.910939E-013
 0.910939E-013
 0.910939E-013
 0.910939E-013
 0.910939E-013
 0.910939E-013
 0.910939E-013
 0.910939E-013
 0.910938E-013
 0.910951E-013
 0.910706E-013
 0.913885E-013
 0.914455E-013
 0.910661E-013
 0.910953E-013
 0.910938E-013
 0.910939E-013
 0.910939E-013
 0.910939E-013
 0.910939E-013
 0.910939E-013
 0.910939E-013
 0.910939E-013
 0.910939E-013
 0.910939E-013
 0.910939E-013
 0.910939E-013
 0.910940E-013
 0.910940E-013
 0.910940E-013
 0.910940E-013
 0.910941E-013
 0.910941E-013
 0.910941E-013
 0.910942E-013
 0.910942E-013
 0.910943E-013
 0.910944E-013
 0.910944E-013
 0.910945E-013
 0.910946E-013
 0.910947E-013
 0.910948E-013
 0.910949E-013
 0.910950E-013
 0.910951E-013
 0.910952E-013
 0.910953E-013
 0.910955E-013
 0.910956E-013
 0.910958E-013
 0.910959E-013
 0.910961E-013
 0.910962E-013
 0.910964E-013
 0.910966E-013
 0.910968E-013
 0.910969E-013
 0.910971E-013
 0.910973E-013
 0.910975E-013
 0.910976E-013
 0.910978E-013
 0.910980E-013
 0.910981E-013
 0.910983E-013
 0.910984E-013
 0.910985E-013
 0.910986E-013
 0.910988E-013
 0.910988E-013
 0.910989E-013
 0.910990E-013
 0.910990E-013
 0.910991E-013
 0.910991E-013
 0.910991E-013
 0.910991E-013
 0.910990E-013
 0.910990E-013
 0.910989E-013
 0.910988E-013
 0.910988E-013
 0.910986E-013
 0.910985E-013
 0.910984E-013
 0.910983E-013
 0.910981E-013
 0.910980E-013
 0.910978E-013
 0.910976E-013
 0.910975E-013
 0.910973E-013
 0.910971E-013
 0.910969E-013
 0.910968E-013
 0.910966E-013
 0.910964E-013
 0.910962E-013
 0.910961E-013
 0.910959E-013
 0.910958E-013
 0.910956E-013
 0.910955E-013
 0.910953E-013
 0.910952E-013
 0.910951E-013
 0.910950E-013
 0.910949E-013
 0.910948E-013
 0.910947E-013
 0.910946E-013
 0.910945E-013
 0.910944E-013
 0.910944E-013
 0.910943E-013
 0.910942E-013
 0.910942E-013
 0.910941E-013
 0.910941E-013
 0.910941E-013
 0.910940E-013
 0.910940E-013
 0.910940E-013
 0.910940E-013
 0.910939E-013
 0.910939E-013
 0.910939E-013
 0.910939E-013
 0.910939E-013
 0.910939E-013
 0.910939E-013
 0.910939E-013
 0.910939E-013
 0.910939E-013
 0.910939E-013
 0.910938E-013
 0.910953E-013
 0.910661E-013
 0.914455E-013
 0.915025E-013
 0.910616E-013
 0.910956E-013
 0.910938E-013
 0.910939E-013
 0.910939E-013
 0.910939E-013
 0.910939E-013
 0.910939E-013
 0.910939E-013
 0.910939E-013
 0.910939E-013
 0.910939E-013
 0.910939E-013
 0.910940E-013
 0.910940E-013
 0.910940E-013
 0.910940E-013
 0.910941E-013
 0.910941E-013
 0.910942E-013
 0.910942E-013
 0.910943E-013
 0.910943E-013
 0.910944E-013
 0.910945E-013
 0.910945E-013
 0.910946E-013
 0.910947E-013
 0.910948E-013
 0.910949E-013
 0.910951E-013
 0.910952E-013
 0.910953E-013
 0.910955E-013
 0.910956E-013
 0.910958E-013
 0.910959E-013
 0.910961E-013
 0.910963E-013
 0.910965E-013
 0.910967E-013
 0.910969E-013
 0.910971E-013
 0.910973E-013
 0.910975E-013
 0.910977E-013
 0.910980E-013
 0.910982E-013
 0.910984E-013
 0.910986E-013
 0.910988E-013
 0.910989E-013
 0.910991E-013
 0.910993E-013
 0.910994E-013
 0.910996E-013
 0.910997E-013
 0.910998E-013
 0.910999E-013
 0.911000E-013
 0.911000E-013
 0.911001E-013
 0.911001E-013
 0.911001E-013
 0.911001E-013
 0.911000E-013
 0.911000E-013
 0.910999E-013
 0.910998E-013
 0.910997E-013
 0.910996E-013
 0.910994E-013
 0.910993E-013
 0.910991E-013
 0.910989E-013
 0.910988E-013
 0.910986E-013
 0.910984E-013
 0.910982E-013
 0.910980E-013
 0.910977E-013
 0.910975E-013
 0.910973E-013
 0.910971E-013
 0.910969E-013
 0.910967E-013
 0.910965E-013
 0.910963E-013
 0.910961E-013
 0.910959E-013
 0.910958E-013
 0.910956E-013
 0.910955E-013
 0.910953E-013
 0.910952E-013
 0.910951E-013
 0.910949E-013
 0.910948E-013
 0.910947E-013
 0.910946E-013
 0.910945E-013
 0.910945E-013
 0.910944E-013
 0.910943E-013
 0.910943E-013
 0.910942E-013
 0.910942E-013
 0.910941E-013
 0.910941E-013
 0.910940E-013
 0.910940E-013
 0.910940E-013
 0.910940E-013
 0.910939E-013
 0.910939E-013
 0.910939E-013
 0.910939E-013
 0.910939E-013
 0.910939E-013
 0.910939E-013
 0.910939E-013
 0.910939E-013
 0.910939E-013
 0.910938E-013
 0.910956E-013
 0.910616E-013
 0.915024E-013
 0.915593E-013
 0.910571E-013
 0.910958E-013
 0.910938E-013
 0.910939E-013
 0.910939E-013
 0.910939E-013
 0.910939E-013
 0.910939E-013
 0.910939E-013
 0.910939E-013
 0.910939E-013
 0.910939E-013
 0.910940E-013
 0.910940E-013
 0.910940E-013
 0.910941E-013
 0.910941E-013
 0.910941E-013
 0.910942E-013
 0.910942E-013
 0.910943E-013
 0.910943E-013
 0.910944E-013
 0.910945E-013
 0.910946E-013
 0.910947E-013
 0.910948E-013
 0.910949E-013
 0.910950E-013
 0.910951E-013
 0.910953E-013
 0.910954E-013
 0.910956E-013
 0.910958E-013
 0.910960E-013
 0.910961E-013
 0.910964E-013
 0.910966E-013
 0.910968E-013
 0.910970E-013
 0.910972E-013
 0.910975E-013
 0.910977E-013
 0.910980E-013
 0.910982E-013
 0.910985E-013
 0.910987E-013
 0.910990E-013
 0.910992E-013
 0.910995E-013
 0.910997E-013
 0.910999E-013
 0.911001E-013
 0.911003E-013
 0.911005E-013
 0.911007E-013
 0.911008E-013
 0.911010E-013
 0.911011E-013
 0.911012E-013
 0.911012E-013
 0.911013E-013
 0.911013E-013
 0.911013E-013
 0.911013E-013
 0.911012E-013
 0.911012E-013
 0.911011E-013
 0.911010E-013
 0.911008E-013
 0.911007E-013
 0.911005E-013
 0.911003E-013
 0.911001E-013
 0.910999E-013
 0.910997E-013
 0.910995E-013
 0.910992E-013
 0.910990E-013
 0.910987E-013
 0.910985E-013
 0.910982E-013
 0.910980E-013
 0.910977E-013
 0.910975E-013
 0.910972E-013
 0.910970E-013
 0.910968E-013
 0.910966E-013
 0.910964E-013
 0.910961E-013
 0.910960E-013
 0.910958E-013
 0.910956E-013
 0.910954E-013
 0.910953E-013
 0.910951E-013
 0.910950E-013
 0.910949E-013
 0.910948E-013
 0.910947E-013
 0.910946E-013
 0.910945E-013
 0.910944E-013
 0.910943E-013
 0.910943E-013
 0.910942E-013
 0.910942E-013
 0.910941E-013
 0.910941E-013
 0.910940E-013
 0.910940E-013
 0.910940E-013
 0.910940E-013
 0.910939E-013
 0.910939E-013
 0.910939E-013
 0.910939E-013
 0.910939E-013
 0.910939E-013
 0.910939E-013
 0.910939E-013
 0.910939E-013
 0.910938E-013
 0.910958E-013
 0.910571E-013
 0.915593E-013
 0.916162E-013
 0.910526E-013
 0.910960E-013
 0.910938E-013
 0.910939E-013
 0.910939E-013
 0.910939E-013
 0.910939E-013
 0.910939E-013
 0.910939E-013
 0.910939E-013
 0.910939E-013
 0.910940E-013
 0.910940E-013
 0.910940E-013
 0.910941E-013
 0.910941E-013
 0.910941E-013
 0.910942E-013
 0.910942E-013
 0.910943E-013
 0.910944E-013
 0.910944E-013
 0.910945E-013
 0.910946E-013
 0.910947E-013
 0.910948E-013
 0.910950E-013
 0.910951E-013
 0.910952E-013
 0.910954E-013
 0.910956E-013
 0.910957E-013
 0.910959E-013
 0.910961E-013
 0.910964E-013
 0.910966E-013
 0.910968E-013
 0.910971E-013
 0.910973E-013
 0.910976E-013
 0.910979E-013
 0.910982E-013
 0.910985E-013
 0.910988E-013
 0.910991E-013
 0.910994E-013
 0.910997E-013
 0.910999E-013
 0.911002E-013
 0.911005E-013
 0.911008E-013
 0.911011E-013
 0.911013E-013
 0.911015E-013
 0.911018E-013
 0.911020E-013
 0.911021E-013
 0.911023E-013
 0.911024E-013
 0.911025E-013
 0.911026E-013
 0.911027E-013
 0.911027E-013
 0.911027E-013
 0.911027E-013
 0.911026E-013
 0.911025E-013
 0.911024E-013
 0.911023E-013
 0.911021E-013
 0.911020E-013
 0.911018E-013
 0.911015E-013
 0.911013E-013
 0.911011E-013
 0.911008E-013
 0.911005E-013
 0.911002E-013
 0.910999E-013
 0.910997E-013
 0.910994E-013
 0.910991E-013
 0.910988E-013
 0.910985E-013
 0.910982E-013
 0.910979E-013
 0.910976E-013
 0.910973E-013
 0.910971E-013
 0.910968E-013
 0.910966E-013
 0.910964E-013
 0.910961E-013
 0.910959E-013
 0.910957E-013
 0.910956E-013
 0.910954E-013
 0.910952E-013
 0.910951E-013
 0.910950E-013
 0.910948E-013
 0.910947E-013
 0.910946E-013
 0.910945E-013
 0.910944E-013
 0.910944E-013
 0.910943E-013
 0.910942E-013
 0.910942E-013
 0.910941E-013
 0.910941E-013
 0.910941E-013
 0.910940E-013
 0.910940E-013
 0.910940E-013
 0.910939E-013
 0.910939E-013
 0.910939E-013
 0.910939E-013
 0.910939E-013
 0.910939E-013
 0.910939E-013
 0.910939E-013
 0.910938E-013
 0.910960E-013
 0.910526E-013
 0.916161E-013
 0.916729E-013
 0.910481E-013
 0.910963E-013
 0.910938E-013
 0.910939E-013
 0.910939E-013
 0.910939E-013
 0.910939E-013
 0.910939E-013
 0.910939E-013
 0.910939E-013
 0.910940E-013
 0.910940E-013
 0.910940E-013
 0.910941E-013
 0.910941E-013
 0.910941E-013
 0.910942E-013
 0.910942E-013
 0.910943E-013
 0.910944E-013
 0.910945E-013
 0.910946E-013
 0.910947E-013
 0.910948E-013
 0.910949E-013
 0.910950E-013
 0.910952E-013
 0.910953E-013
 0.910955E-013
 0.910957E-013
 0.910959E-013
 0.910961E-013
 0.910963E-013
 0.910966E-013
 0.910968E-013
 0.910971E-013
 0.910974E-013
 0.910977E-013
 0.910980E-013
 0.910983E-013
 0.910986E-013
 0.910990E-013
 0.910993E-013
 0.910997E-013
 0.911000E-013
 0.911004E-013
 0.911007E-013
 0.911011E-013
 0.911014E-013
 0.911017E-013
 0.911021E-013
 0.911024E-013
 0.911027E-013
 0.911030E-013
 0.911032E-013
 0.911034E-013
 0.911037E-013
 0.911038E-013
 0.911040E-013
 0.911041E-013
 0.911042E-013
 0.911043E-013
 0.911043E-013
 0.911043E-013
 0.911043E-013
 0.911042E-013
 0.911041E-013
 0.911040E-013
 0.911038E-013
 0.911037E-013
 0.911034E-013
 0.911032E-013
 0.911030E-013
 0.911027E-013
 0.911024E-013
 0.911021E-013
 0.911017E-013
 0.911014E-013
 0.911011E-013
 0.911007E-013
 0.911004E-013
 0.911000E-013
 0.910997E-013
 0.910993E-013
 0.910990E-013
 0.910986E-013
 0.910983E-013
 0.910980E-013
 0.910977E-013
 0.910974E-013
 0.910971E-013
 0.910968E-013
 0.910966E-013
 0.910963E-013
 0.910961E-013
 0.910959E-013
 0.910957E-013
 0.910955E-013
 0.910953E-013
 0.910952E-013
 0.910950E-013
 0.910949E-013
 0.910948E-013
 0.910947E-013
 0.910946E-013
 0.910945E-013
 0.910944E-013
 0.910943E-013
 0.910942E-013
 0.910942E-013
 0.910941E-013
 0.910941E-013
 0.910941E-013
 0.910940E-013
 0.910940E-013
 0.910940E-013
 0.910939E-013
 0.910939E-013
 0.910939E-013
 0.910939E-013
 0.910939E-013
 0.910939E-013
 0.910939E-013
 0.910938E-013
 0.910963E-013
 0.910481E-013
 0.916729E-013
 0.917296E-013
 0.910436E-013
 0.910965E-013
 0.910938E-013
 0.910939E-013
 0.910939E-013
 0.910939E-013
 0.910939E-013
 0.910939E-013
 0.910939E-013
 0.910940E-013
 0.910940E-013
 0.910940E-013
 0.910941E-013
 0.910941E-013
 0.910941E-013
 0.910942E-013
 0.910943E-013
 0.910943E-013
 0.910944E-013
 0.910945E-013
 0.910946E-013
 0.910947E-013
 0.910948E-013
 0.910949E-013
 0.910951E-013
 0.910952E-013
 0.910954E-013
 0.910956E-013
 0.910958E-013
 0.910960E-013
 0.910962E-013
 0.910965E-013
 0.910968E-013
 0.910971E-013
 0.910974E-013
 0.910977E-013
 0.910980E-013
 0.910984E-013
 0.910987E-013
 0.910991E-013
 0.910995E-013
 0.910999E-013
 0.911003E-013
 0.911007E-013
 0.911011E-013
 0.911015E-013
 0.911020E-013
 0.911024E-013