# vtk DataFile Version 3.0
Solution data
ASCII
DATASET STRUCTURED_GRID
DIMENSIONS 65 129 1
POINTS 8385  double
      0.000000      0.000000      0.000000
      0.015625      0.000000      0.000000
      0.031250      0.000000      0.000000
      0.046875      0.000000      0.000000
      0.062500      0.000000      0.000000
      0.078125      0.000000      0.000000
      0.093750      0.000000      0.000000
      0.109375      0.000000      0.000000
      0.125000      0.000000      0.000000
      0.140625      0.000000      0.000000
      0.156250      0.000000      0.000000
      0.171875      0.000000      0.000000
      0.187500      0.000000      0.000000
      0.203125      0.000000      0.000000
      0.218750      0.000000      0.000000
      0.234375      0.000000      0.000000
      0.250000      0.000000      0.000000
      0.265625      0.000000      0.000000
      0.281250      0.000000      0.000000
      0.296875      0.000000      0.000000
      0.312500      0.000000      0.000000
      0.328125      0.000000      0.000000
      0.343750      0.000000      0.000000
      0.359375      0.000000      0.000000
      0.375000      0.000000      0.000000
      0.390625      0.000000      0.000000
      0.406250      0.000000      0.000000
      0.421875      0.000000      0.000000
      0.437500      0.000000      0.000000
      0.453125      0.000000      0.000000
      0.468750      0.000000      0.000000
      0.484375      0.000000      0.000000
      0.500000      0.000000      0.000000
      0.515625      0.000000      0.000000
      0.531250      0.000000      0.000000
      0.546875      0.000000      0.000000
      0.562500      0.000000      0.000000
      0.578125      0.000000      0.000000
      0.593750      0.000000      0.000000
      0.609375      0.000000      0.000000
      0.625000      0.000000      0.000000
      0.640625      0.000000      0.000000
      0.656250      0.000000      0.000000
      0.671875      0.000000      0.000000
      0.687500      0.000000      0.000000
      0.703125      0.000000      0.000000
      0.718750      0.000000      0.000000
      0.734375      0.000000      0.000000
      0.750000      0.000000      0.000000
      0.765625      0.000000      0.000000
      0.781250      0.000000      0.000000
      0.796875      0.000000      0.000000
      0.812500      0.000000      0.000000
      0.828125      0.000000      0.000000
      0.843750      0.000000      0.000000
      0.859375      0.000000      0.000000
      0.875000      0.000000      0.000000
      0.890625      0.000000      0.000000
      0.906250      0.000000      0.000000
      0.921875      0.000000      0.000000
      0.937500      0.000000      0.000000
      0.953125      0.000000      0.000000
      0.968750      0.000000      0.000000
      0.984375      0.000000      0.000000
      1.000000      0.000000      0.000000
      0.000000      0.015625      0.000000
      0.015625      0.015625      0.000000
      0.031250      0.015625      0.000000
      0.046875      0.015625      0.000000
      0.062500      0.015625      0.000000
      0.078125      0.015625      0.000000
      0.093750      0.015625      0.000000
      0.109375      0.015625      0.000000
      0.125000      0.015625      0.000000
      0.140625      0.015625      0.000000
      0.156250      0.015625      0.000000
      0.171875      0.015625      0.000000
      0.187500      0.015625      0.000000
      0.203125      0.015625      0.000000
      0.218750      0.015625      0.000000
      0.234375      0.015625      0.000000
      0.250000      0.015625      0.000000
      0.265625      0.015625      0.000000
      0.281250      0.015625      0.000000
      0.296875      0.015625      0.000000
      0.312500      0.015625      0.000000
      0.328125      0.015625      0.000000
      0.343750      0.015625      0.000000
      0.359375      0.015625      0.000000
      0.375000      0.015625      0.000000
      0.390625      0.015625      0.000000
      0.406250      0.015625      0.000000
      0.421875      0.015625      0.000000
      0.437500      0.015625      0.000000
      0.453125      0.015625      0.000000
      0.468750      0.015625      0.000000
      0.484375      0.015625      0.000000
      0.500000      0.015625      0.000000
      0.515625      0.015625      0.000000
      0.531250      0.015625      0.000000
      0.546875      0.015625      0.000000
      0.562500      0.015625      0.000000
      0.578125      0.015625      0.000000
      0.593750      0.015625      0.000000
      0.609375      0.015625      0.000000
      0.625000      0.015625      0.000000
      0.640625      0.015625      0.000000
      0.656250      0.015625      0.000000
      0.671875      0.015625      0.000000
      0.687500      0.015625      0.000000
      0.703125      0.015625      0.000000
      0.718750      0.015625      0.000000
      0.734375      0.015625      0.000000
      0.750000      0.015625      0.000000
      0.765625      0.015625      0.000000
      0.781250      0.015625      0.000000
      0.796875      0.015625      0.000000
      0.812500      0.015625      0.000000
      0.828125      0.015625      0.000000
      0.843750      0.015625      0.000000
      0.859375      0.015625      0.000000
      0.875000      0.015625      0.000000
      0.890625      0.015625      0.000000
      0.906250      0.015625      0.000000
      0.921875      0.015625      0.000000
      0.937500      0.015625      0.000000
      0.953125      0.015625      0.000000
      0.968750      0.015625      0.000000
      0.984375      0.015625      0.000000
      1.000000      0.015625      0.000000
      0.000000      0.031250      0.000000
      0.015625      0.031250      0.000000
      0.031250      0.031250      0.000000
      0.046875      0.031250      0.000000
      0.062500      0.031250      0.000000
      0.078125      0.031250      0.000000
      0.093750      0.031250      0.000000
      0.109375      0.031250      0.000000
      0.125000      0.031250      0.000000
      0.140625      0.031250      0.000000
      0.156250      0.031250      0.000000
      0.171875      0.031250      0.000000
      0.187500      0.031250      0.000000
      0.203125      0.031250      0.000000
      0.218750      0.031250      0.000000
      0.234375      0.031250      0.000000
      0.250000      0.031250      0.000000
      0.265625      0.031250      0.000000
      0.281250      0.031250      0.000000
      0.296875      0.031250      0.000000
      0.312500      0.031250      0.000000
      0.328125      0.031250      0.000000
      0.343750      0.031250      0.000000
      0.359375      0.031250      0.000000
      0.375000      0.031250      0.000000
      0.390625      0.031250      0.000000
      0.406250      0.031250      0.000000
      0.421875      0.031250      0.000000
      0.437500      0.031250      0.000000
      0.453125      0.031250      0.000000
      0.468750      0.031250      0.000000
      0.484375      0.031250      0.000000
      0.500000      0.031250      0.000000
      0.515625      0.031250      0.000000
      0.531250      0.031250      0.000000
      0.546875      0.031250      0.000000
      0.562500      0.031250      0.000000
      0.578125      0.031250      0.000000
      0.593750      0.031250      0.000000
      0.609375      0.031250      0.000000
      0.625000      0.031250      0.000000
      0.640625      0.031250      0.000000
      0.656250      0.031250      0.000000
      0.671875      0.031250      0.000000
      0.687500      0.031250      0.000000
      0.703125      0.031250      0.000000
      0.718750      0.031250      0.000000
      0.734375      0.031250      0.000000
      0.750000      0.031250      0.000000
      0.765625      0.031250      0.000000
      0.781250      0.031250      0.000000
      0.796875      0.031250      0.000000
      0.812500      0.031250      0.000000
      0.828125      0.031250      0.000000
      0.843750      0.031250      0.000000
      0.859375      0.031250      0.000000
      0.875000      0.031250      0.000000
      0.890625      0.031250      0.000000
      0.906250      0.031250      0.000000
      0.921875      0.031250      0.000000
      0.937500      0.031250      0.000000
      0.953125      0.031250      0.000000
      0.968750      0.031250      0.000000
      0.984375      0.031250      0.000000
      1.000000      0.031250      0.000000
      0.000000      0.046875      0.000000
      0.015625      0.046875      0.000000
      0.031250      0.046875      0.000000
      0.046875      0.046875      0.000000
      0.062500      0.046875      0.000000
      0.078125      0.046875      0.000000
      0.093750      0.046875      0.000000
      0.109375      0.046875      0.000000
      0.125000      0.046875      0.000000
      0.140625      0.046875      0.000000
      0.156250      0.046875      0.000000
      0.171875      0.046875      0.000000
      0.187500      0.046875      0.000000
      0.203125      0.046875      0.000000
      0.218750      0.046875      0.000000
      0.234375      0.046875      0.000000
      0.250000      0.046875      0.000000
      0.265625      0.046875      0.000000
      0.281250      0.046875      0.000000
      0.296875      0.046875      0.000000
      0.312500      0.046875      0.000000
      0.328125      0.046875      0.000000
      0.343750      0.046875      0.000000
      0.359375      0.046875      0.000000
      0.375000      0.046875      0.000000
      0.390625      0.046875      0.000000
      0.406250      0.046875      0.000000
      0.421875      0.046875      0.000000
      0.437500      0.046875      0.000000
      0.453125      0.046875      0.000000
      0.468750      0.046875      0.000000
      0.484375      0.046875      0.000000
      0.500000      0.046875      0.000000
      0.515625      0.046875      0.000000
[...]
POINT_DATA 8385
SCALARS phi double
LOOKUP_TABLE default
 0.100000E+003
 0.100000E+003
 0.100000E+003
 0.100000E+003
 0.100000E+003
 0.100000E+003
 0.100000E+003
 0.100000E+003
 0.100000E+003
 0.100000E+003
 0.100000E+003
 0.100000E+003
 0.100000E+003
 0.100000E+003
 0.100000E+003
 0.100000E+003
 0.100000E+003
 0.100000E+003
 0.100000E+003
 0.100000E+003
 0.100000E+003
 0.100000E+003
 0.100000E+003
 0.100000E+003
 0.100000E+003
 0.100000E+003
 0.100000E+003
 0.100000E+003
 0.100000E+003
 0.100000E+003
 0.100000E+003
 0.100000E+003
 0.100000E+003
 0.100000E+003
 0.100000E+003
 0.100000E+003
 0.100000E+003
 0.100000E+003
 0.100000E+003
 0.100000E+003
 0.100000E+003
 0.100000E+003
 0.100000E+003
 0.100000E+003
 0.100000E+003
 0.100000E+003
 0.100000E+003
 0.100000E+003
 0.100000E+003
 0.100000E+003
 0.100000E+003
 0.100000E+003
 0.100000E+003
 0.100000E+003
 0.100000E+003
 0.100000E+003
 0.100000E+003
 0.100000E+003
 0.100000E+003
 0.100000E+003
 0.100000E+003
 0.100000E+003
 0.100000E+003
 0.100000E+003
 0.100000E+003
 0.000000E+000
 0.499752E+002
 0.697156E+002
 0.789865E+002
 0.840509E+002
 0.871626E+002
 0.892468E+002
 0.907328E+002
 0.918420E+002
 0.926992E+002
 0.933795E+002
 0.939309E+002
 0.943855E+002
 0.947653E+002
 0.950863E+002
 0.953600E+002
 0.955950E+002
 0.957981E+002
 0.959743E+002
 0.961276E+002
 0.962612E+002
 0.963778E+002
 0.964793E+002
 0.965675E+002
 0.966438E+002
 0.967092E+002
 0.967647E+002
 0.968110E+002
 0.968488E+002
 0.968785E+002
 0.969004E+002
 0.969149E+002
 0.969221E+002
 0.969221E+002
 0.969149E+002
 0.969004E+002
 0.968785E+002
 0.968488E+002
 0.968110E+002
 0.967647E+002
 0.967092E+002
 0.966438E+002
 0.965675E+002
 0.964793E+002
 0.963778E+002
 0.962612E+002
 0.961276E+002
 0.959743E+002
 0.957981E+002
 0.955950E+002
 0.953600E+002
 0.950863E+002
 0.947653E+002
 0.943855E+002
 0.939309E+002
 0.933795E+002
 0.926992E+002
 0.918420E+002
 0.907328E+002
 0.892468E+002
 0.871626E+002
 0.840509E+002
 0.789865E+002
 0.697156E+002
 0.499752E+002
 0.000000E+000
 0.301852E+002
 0.499008E+002
 0.621796E+002
 0.700544E+002
 0.753528E+002
 0.790919E+002
 0.818423E+002
 0.839361E+002
 0.855753E+002
 0.868879E+002
 0.879587E+002
 0.888457E+002
 0.895895E+002
 0.902199E+002
 0.907586E+002
 0.912221E+002
 0.916231E+002
 0.919714E+002
 0.922748E+002
 0.925396E+002
 0.927706E+002
 0.929720E+002
 0.931470E+002
 0.932984E+002
 0.934283E+002
 0.935385E+002
 0.936306E+002
 0.937057E+002
 0.937647E+002
 0.938083E+002
 0.938371E+002
 0.938515E+002
 0.938515E+002
 0.938371E+002
 0.938083E+002
 0.937647E+002
 0.937057E+002
 0.936306E+002
 0.935385E+002
 0.934283E+002
 0.932984E+002
 0.931470E+002
 0.929720E+002
 0.927706E+002
 0.925396E+002
 0.922748E+002
 0.919714E+002
 0.916231E+002
 0.912221E+002
 0.907586E+002
 0.902199E+002
 0.895895E+002
 0.888457E+002
 0.879587E+002
 0.868879E+002
 0.855753E+002
 0.839361E+002
 0.818423E+002
 0.790919E+002
 0.753528E+002
 0.700544E+002
 0.621796E+002
 0.499008E+002
 0.301852E+002
 0.000000E+000
 0.208647E+002
 0.375228E+002
 0.497768E+002
 0.586342E+002
 0.651022E+002
 0.699256E+002
 0.736085E+002
 0.764849E+002
 0.787778E+002
 0.806381E+002
 0.821704E+002
 0.834489E+002
 0.845273E+002
 0.854452E+002
 0.862324E+002
 0.869117E+002
 0.875007E+002
 0.880134E+002
 0.884608E+002
 0.888516E+002
 0.891931E+002
 0.894910E+002
 0.897502E+002
 0.899745E+002
 0.901671E+002
 0.903306E+002
 0.904672E+002
 0.905786E+002
 0.906662E+002
 0.907311E+002
 0.907739E+002
 0.907951E+002
 0.907951E+002
 0.907739E+002
 0.907311E+002
 0.906662E+002
 0.905786E+002
 0.904672E+002
 0.903306E+002
 0.901671E+002
 0.899745E+002
 0.897502E+002
 0.894910E+002
 0.891931E+002
 0.888516E+002
 0.884608E+002
 0.880134E+002
 0.875007E+002
 0.869117E+002
 0.862324E+002
 0.854452E+002
 0.845273E+002
 0.834489E+002
 0.821704E+002
 0.806381E+002
 0.787778E+002
 0.764849E+002
 0.736085E+002
 0.699256E+002
 0.651022E+002
 0.586342E+002
 0.497768E+002
 0.375228E+002
 0.208647E+002
 0.000000E+000
 0.157508E+002
 0.295489E+002
 0.407707E+002
 0.496033E+002
 0.564964E+002
 0.618998E+002
 0.661809E+002
 0.696174E+002
 0.724129E+002
 0.747162E+002
 0.766359E+002
 0.782523E+002
 0.796255E+002
 0.808011E+002
 0.818140E+002
 0.826915E+002
 0.834547E+002
 0.841208E+002
 0.847032E+002
 0.852130E+002
 0.856591E+002
 0.860488E+002
 0.863882E+002
 0.866822E+002
 0.869349E+002
 0.871495E+002
 0.873290E+002
 0.874754E+002
 0.875906E+002
 0.876758E+002
 0.877321E+002
 0.877601E+002
 0.877601E+002
 0.877321E+002
 0.876758E+002
 0.875906E+002
 0.874754E+002
 0.873290E+002
 0.871495E+002
 0.869349E+002
 0.866822E+002
 0.863882E+002
 0.860488E+002
 0.856591E+002
 0.852130E+002
 0.847032E+002
 0.841208E+002
 0.834547E+002
 0.826915E+002
 0.818140E+002
 0.808011E+002
 0.796255E+002
 0.782523E+002
 0.766359E+002
 0.747162E+002
 0.724129E+002
 0.696174E+002
 0.661809E+002
 0.618998E+002
 0.564964E+002
 0.496033E+002
 0.407707E+002
 0.295489E+002
 0.157508E+002
 0.000000E+000
 0.125894E+002
 0.241513E+002
 0.341539E+002
 0.425119E+002
 0.493802E+002
 0.549964E+002
 0.595981E+002
 0.633907E+002
 0.665404E+002
 0.691779E+002
 0.714046E+002
 0.732988E+002
 0.749214E+002
 0.763197E+002
 0.775313E+002
 0.785854E+002
 0.795059E+002
 0.803117E+002
 0.810182E+002
 0.816381E+002
 0.821815E+002
 0.826570E+002
 0.830717E+002
 0.834313E+002
 0.837406E+002
 0.840037E+002
 0.842238E+002
 0.844035E+002
 0.845448E+002
 0.846495E+002
 0.847186E+002
 0.847530E+002
 0.847530E+002
 0.847186E+002
 0.846495E+002
 0.845448E+002
 0.844035E+002
 0.842238E+002
 0.840037E+002
 0.837406E+002
 0.834313E+002
 0.830717E+002
 0.826570E+002
 0.821815E+002
 0.816381E+002
 0.810182E+002
 0.803117E+002
 0.795059E+002
 0.785854E+002
 0.775313E+002
 0.763197E+002
 0.749214E+002
 0.732988E+002
 0.714046E+002
 0.691779E+002
 0.665404E+002
 0.633907E+002
 0.595981E+002
 0.549964E+002
 0.493802E+002
 0.425119E+002
 0.341539E+002
 0.241513E+002
 0.125894E+002
 0.000000E+000
 0.104556E+002
 0.203130E+002
 0.291818E+002
 0.369101E+002
 0.435160E+002
 0.491075E+002
 0.538244E+002
 0.578068E+002
 0.611801E+002
 0.640505E+002
 0.665058E+002
 0.686170E+002
 0.704414E+002
 0.720253E+002
 0.734058E+002
 0.746131E+002
 0.756718E+002
 0.766020E+002
 0.774200E+002
 0.781395E+002
 0.787718E+002
 0.793261E+002
 0.798102E+002
 0.802306E+002
 0.805927E+002
 0.809010E+002
 0.811590E+002
 0.813698E+002
 0.815358E+002
 0.816587E+002
 0.817399E+002
 0.817803E+002
 0.817803E+002
 0.817399E+002
 0.816587E+002
 0.815358E+002
 0.813698E+002
 0.811590E+002
 0.809010E+002
 0.805927E+002
 0.802306E+002
 0.798102E+002
 0.793261E+002
 0.787718E+002
 0.781395E+002
 0.774200E+002
 0.766020E+002
 0.756718E+002
 0.746131E+002
 0.734058E+002
 0.720253E+002
 0.704414E+002
 0.686170E+002
 0.665058E+002
 0.640505E+002
 0.611801E+002
 0.578068E+002
 0.538244E+002
 0.491075E+002
 0.435160E+002
 0.369101E+002
 0.291818E+002
 0.203130E+002
 0.104556E+002
 0.000000E+000
 0.892003E+001
 0.174634E+002
 0.253501E+002
 0.324306E+002
 0.386664E+002
 0.440931E+002
 0.487853E+002
 0.528321E+002
 0.563225E+002
 0.593383E+002
 0.619511E+002
 0.642219E+002
 0.662021E+002
 0.679341E+002
 0.694534E+002
 0.707894E+002
 0.719663E+002
 0.730043E+002
 0.739203E+002
 0.747283E+002
 0.754400E+002
 0.760653E+002
 0.766124E+002
 0.770882E+002
 0.774986E+002
 0.778484E+002
 0.781414E+002
 0.783810E+002
 0.785697E+002
 0.787096E+002
 0.788020E+002
 0.788480E+002
 0.788480E+002
 0.788020E+002
 0.787096E+002
 0.785697E+002
 0.783810E+002
 0.781414E+002
 0.778484E+002
 0.774986E+002
 0.770882E+002
 0.766124E+002
 0.760653E+002
 0.754400E+002
 0.747283E+002
 0.739203E+002
 0.730043E+002
 0.719663E+002
 0.707894E+002
 0.694534E+002
 0.679341E+002
 0.662021E+002
 0.642219E+002
 0.619511E+002
 0.593383E+002
 0.563225E+002
 0.528321E+002
 0.487853E+002
 0.440931E+002
 0.386664E+002
 0.324306E+002
 0.253501E+002
 0.174634E+002
 0.892003E+001
 0.000000E+000
 0.776115E+001
 0.152703E+002
 0.223247E+002
 0.287957E+002
 0.346258E+002
 0.398133E+002
 0.443917E+002
 0.484137E+002
 0.519395E+002
 0.550291E+002
 0.577384E+002
 0.601176E+002
 0.622108E+002
 0.640556E+002
 0.656845E+002
 0.671248E+002
 0.683997E+002
 0.695287E+002
 0.705286E+002
 0.714133E+002
 0.721946E+002
 0.728826E+002
 0.734858E+002
 0.740114E+002
 0.744652E+002
 0.748525E+002
 0.751773E+002
 0.754431E+002
 0.756526E+002
 0.758079E+002
 0.759106E+002
 0.759617E+002
 0.759617E+002
 0.759106E+002
 0.758079E+002
 0.756526E+002
 0.754431E+002
 0.751773E+002
 0.748525E+002
 0.744652E+002
 0.740114E+002
 0.734858E+002
 0.728826E+002
 0.721946E+002
 0.714133E+002
 0.705286E+002
 0.695287E+002
 0.683997E+002
 0.671248E+002
 0.656845E+002
 0.640556E+002
 0.622108E+002
 0.601176E+002
 0.577384E+002
 0.550291E+002
 0.519395E+002
 0.484137E+002
 0.443917E+002
 0.398133E+002
 0.346258E+002
 0.287957E+002
 0.223247E+002
 0.152703E+002
 0.776115E+001
 0.000000E+000
 0.685431E+001
 0.135318E+002
 0.198829E+002
 0.258015E+002
 0.312280E+002
 0.361425E+002
 0.405543E+002
 0.444917E+002
 0.479928E+002
 0.511001E+002
 0.538556E+002
 0.562994E+002
 0.584677E+002
 0.603932E+002
 0.621042E+002
 0.636255E+002
 0.649788E+002
 0.661824E+002
 0.672521E+002
 0.682016E+002
 0.690425E+002
 0.697848E+002
 0.704370E+002
 0.710061E+002
 0.714984E+002
 0.719190E+002
 0.722722E+002
 0.725615E+002
 0.727896E+002
 0.729589E+002
 0.730708E+002
 0.731265E+002
 0.731265E+002
 0.730708E+002
 0.729589E+002
 0.727896E+002
 0.725615E+002
 0.722722E+002
 0.719190E+002
 0.714984E+002
 0.710061E+002
 0.704370E+002
 0.697848E+002
 0.690426E+002
 0.682016E+002
 0.672521E+002
 0.661824E+002
 0.649788E+002
 0.636255E+002
 0.621042E+002
 0.603932E+002
 0.584677E+002
 0.562994E+002
 0.538556E+002
 0.511001E+002
 0.479928E+002
 0.444917E+002
 0.405543E+002
 0.361425E+002
 0.312280E+002
 0.258015E+002
 0.198829E+002
 0.135318E+002
 0.685431E+001
 0.000000E+000
 0.612428E+001
 0.121198E+002
 0.178735E+002
 0.232996E+002
 0.283422E+002
 0.329743E+002
 0.371914E+002
 0.410058E+002
 0.444401E+002
 0.475228E+002
 0.502847E+002
 0.527566E+002
 0.549677E+002
 0.569451E+002
 0.587134E+002
 0.602945E+002
 0.617076E+002
 0.629698E+002
 0.640958E+002
 0.650986E+002
 0.659891E+002
 0.667772E+002
 0.674710E+002
 0.680777E+002
 0.686034E+002
 0.690530E+002
 0.694310E+002
 0.697409E+002
 0.699855E+002
 0.701671E+002
 0.702872E+002
 0.703471E+002
 0.703471E+002
 0.702872E+002
 0.701671E+002
 0.699855E+002
 0.697409E+002
 0.694310E+002
 0.690530E+002
 0.686034E+002
 0.680777E+002
 0.674710E+002
 0.667772E+002
 0.659891E+002
 0.650986E+002
 0.640958E+002
 0.629698E+002
 0.617076E+002
 0.602945E+002
 0.587134E+002
 0.569451E+002
 0.549677E+002
 0.527566E+002
 0.502847E+002
 0.475228E+002
 0.444401E+002
 0.410058E+002
 0.371914E+002
 0.329743E+002
 0.283422E+002
 0.232996E+002
 0.178735E+002
 0.121198E+002
 0.612428E+001
 0.000000E+000
 0.552307E+001
 0.109494E+002
 0.161920E+002
 0.211810E+002
 0.258671E+002
 0.302210E+002
 0.342313E+002
 0.378999E+002
 0.412389E+002
 0.442663E+002
 0.470038E+002
 0.494745E+002
 0.517012E+002
 0.537062E+002
 0.555099E+002
 0.571313E+002
 0.585874E+002
 0.598934E+002
 0.610628E+002
 0.621076E+002
 0.630382E+002
 0.638638E+002
 0.645923E+002
 0.652304E+002
 0.657842E+002
 0.662587E+002
 0.666580E+002
 0.669856E+002
 0.672445E+002
 0.674367E+002
 0.675640E+002
 0.676274E+002
 0.676274E+002
 0.675640E+002
 0.674367E+002
 0.672445E+002
 0.669856E+002
 0.666580E+002
 0.662587E+002
 0.657842E+002
 0.652304E+002
 0.645923E+002
 0.638638E+002
 0.630382E+002
 0.621076E+002
 0.610628E+002
 0.598934E+002
 0.585874E+002
 0.571313E+002
 0.555099E+002
 0.537062E+002
 0.517012E+002
 0.494745E+002
 0.470038E+002
 0.442663E+002
 0.412389E+002
 0.378999E+002
 0.342313E+002
 0.302210E+002
 0.258671E+002
 0.211810E+002
 0.161920E+002
 0.109494E+002
 0.552307E+001
 0.000000E+000
 0.501864E+001
 0.996270E+001
 0.147639E+002
 0.193653E+002
 0.237240E+002
 0.278115E+002
 0.316127E+002
 0.351238E+002
 0.383492E+002
 0.412998E+002
 0.439899E+002
 0.464363E+002
 0.486566E+002
 0.506685E+002
 0.524888E+002
 0.541335E+002
 0.556172E+002
 0.569535E+002
 0.581545E+002
 0.592309E+002
 0.601924E+002
 0.610475E+002
 0.618037E+002
 0.624675E+002
 0.630445E+002
 0.635395E+002
 0.639566E+002
 0.642992E+002
 0.645701E+002
 0.647714E+002
 0.649047E+002
 0.649711E+002
 0.649711E+002
 0.649047E+002
 0.647714E+002
 0.645701E+002
 0.642992E+002
 0.639566E+002
 0.635395E+002
 0.630445E+002
 0.624675E+002
 0.618037E+002
 0.610475E+002
 0.601924E+002
 0.592309E+002
 0.581545E+002
 0.569535E+002
 0.556172E+002
 0.541335E+002
 0.524888E+002
 0.506685E+002
 0.486566E+002
 0.464363E+002
 0.439899E+002
 0.412998E+002
 0.383492E+002
 0.351238E+002
 0.316127E+002
 0.278115E+002
 0.237240E+002
 0.193653E+002
 0.147639E+002
 0.996270E+001
 0.501864E+001
 0.000000E+000
 0.458880E+001
 0.911887E+001
 0.135357E+002
 0.177924E+002
 0.218521E+002
 0.256882E+002
 0.292844E+002
 0.326332E+002
 0.357345E+002
 0.385936E+002
 0.412196E+002
 0.436242E+002
 0.458205E+002
 0.478223E+002
 0.496433E+002
 0.512965E+002
 0.527946E+002
 0.541491E+002
 0.553707E+002
 0.564690E+002
 0.574530E+002
 0.583302E+002
 0.591076E+002
 0.597914E+002
 0.603867E+002
 0.608981E+002
 0.613297E+002
 0.616845E+002
 0.619652E+002
 0.621740E+002
 0.623123E+002
 0.623812E+002
 0.623812E+002
 0.623123E+002
 0.621740E+002
 0.619652E+002
 0.616845E+002
 0.613297E+002
 0.608981E+002
 0.603867E+002
 0.597914E+002
 0.591076E+002
 0.583302E+002
 0.574530E+002
 0.564690E+002
 0.553707E+002
 0.541491E+002
 0.527946E+002
 0.512965E+002
 0.496433E+002
 0.478223E+002
 0.458205E+002
 0.436242E+002
 0.412196E+002
 0.385936E+002
 0.357345E+002
 0.326332E+002
 0.292844E+002
 0.256882E+002
 0.218521E+002
 0.177924E+002
 0.135357E+002
 0.911887E+001
 0.458880E+001
 0.000000E+000
 0.421769E+001
 0.838827E+001
 0.124675E+002
 0.164167E+002
 0.202038E+002
 0.238048E+002
 0.272034E+002
 0.303903E+002
 0.333621E+002
 0.361205E+002
 0.386706E+002
 0.410203E+002
 0.431790E+002
 0.451571E+002
 0.469654E+002
 0.486147E+002
 0.501155E+002
 0.514775E+002
 0.527100E+002
 0.538217E+002
 0.548202E+002
 0.557126E+002
 0.565052E+002
 0.572036E+002
 0.578127E+002
 0.583368E+002
 0.587795E+002
 0.591438E+002
 0.594323E+002
 0.596470E+002
 0.597893E+002
 0.598602E+002
 0.598602E+002
 0.597893E+002
 0.596470E+002
 0.594323E+002
 0.591438E+002
 0.587795E+002
 0.583368E+002
 0.578127E+002
 0.572036E+002
 0.565052E+002
 0.557126E+002
 0.548202E+002
 0.538217E+002
 0.527100E+002
 0.514775E+002
 0.501155E+002
 0.486147E+002
 0.469654E+002
 0.451571E+002
 0.431790E+002
 0.410203E+002
 0.386706E+002
 0.361205E+002
 0.333621E+002
 0.303903E+002
 0.272034E+002
 0.238048E+002
 0.202038E+002
 0.164167E+002
 0.124675E+002
 0.838827E+001
 0.421769E+001
 0.000000E+000
 0.389369E+001
 0.774898E+001
 0.115295E+002
 0.152029E+002
 0.187415E+002
 0.221238E+002
 0.253341E+002
 0.283623E+002
 0.312031E+002
 0.338556E+002
 0.363221E+002
 0.386074E+002
 0.407180E+002
 0.426616E+002
 0.444466E+002
 0.460816E+002
 0.475750E+002
 0.489353E+002
 0.501703E+002
 0.512875E+002
 0.522935E+002
 0.531949E+002
 0.539971E+002
 0.547052E+002
 0.553238E+002
 0.558568E+002
 0.563076E+002
 0.566789E+002
 0.569733E+002
 0.571924E+002
 0.573377E+002
 0.574101E+002
 0.574101E+002
 0.573377E+002
 0.571924E+002
 0.569733E+002
 0.566789E+002
 0.563076E+002
 0.558568E+002
 0.553238E+002
 0.547052E+002
 0.539971E+002
 0.531949E+002
 0.522935E+002
 0.512875E+002
 0.501703E+002
 0.489353E+002
 0.475750E+002
 0.460816E+002
 0.444466E+002
 0.426616E+002
 0.407180E+002
 0.386074E+002
 0.363221E+002
 0.338556E+002
 0.312031E+002
 0.283623E+002
 0.253341E+002
 0.221238E+002
 0.187415E+002
 0.152029E+002
 0.115295E+002
 0.774898E+001
 0.389369E+001
 0.000000E+000
 0.360808E+001
 0.718443E+001
 0.106988E+002
 0.141237E+002
 0.174355E+002
 0.206149E+002
 0.236470E+002
 0.265216E+002
 0.292325E+002
 0.317768E+002
 0.341549E+002
 0.363692E+002
 0.384240E+002
 0.403248E+002
 0.420778E+002
 0.436899E+002
 0.451678E+002
 0.465185E+002
 0.477485E+002
 0.488643E+002
 0.498717E+002
 0.507762E+002
 0.515829E+002
 0.522964E+002
 0.529206E+002
 0.534591E+002
 0.539151E+002
 0.542911E+002
 0.545894E+002
 0.548116E+002
 0.549590E+002
 0.550325E+002
 0.550325E+002
 0.549590E+002
 0.548116E+002
 0.545894E+002
 0.542911E+002
 0.539151E+002
 0.534591E+002
 0.529206E+002
 0.522964E+002
 0.515829E+002
 0.507762E+002
 0.498717E+002
 0.488643E+002
 0.477485E+002
 0.465185E+002
 0.451678E+002
 0.436899E+002
 0.420778E+002
 0.403248E+002
 0.384240E+002
 0.363692E+002
 0.341549E+002
 0.317768E+002
 0.292325E+002
 0.265216E+002
 0.236470E+002
 0.206149E+002
 0.174355E+002
 0.141237E+002
 0.106988E+002
 0.718443E+001
 0.360808E+001
 0.000000E+000
 0.335420E+001
 0.668186E+001
 0.995750E+001
 0.131578E+002
 0.162620E+002
 0.192532E+002
 0.221174E+002
 0.248447E+002
 0.274283E+002
 0.298643E+002
 0.321514E+002
 0.342905E+002
 0.362840E+002
 0.381357E+002
 0.398501E+002
 0.414323E+002
 0.428879E+002
 0.442222E+002
 0.454410E+002
 0.465494E+002
 0.475526E+002
 0.484554E+002
 0.492621E+002
 0.499767E+002
 0.506030E+002
 0.511440E+002
 0.516025E+002
 0.519811E+002
 0.522816E+002
 0.525056E+002
 0.526542E+002
 0.527284E+002
 0.527284E+002
 0.526542E+002
 0.525056E+002
 0.522816E+002
 0.519811E+002
 0.516025E+002
 0.511440E+002
 0.506030E+002
 0.499767E+002
 0.492621E+002
 0.484554E+002
 0.475526E+002
 0.465494E+002
 0.454410E+002
 0.442222E+002
 0.428879E+002
 0.414323E+002
 0.398501E+002
 0.381357E+002
 0.362840E+002
 0.342905E+002
 0.321514E+002
 0.298643E+002
 0.274283E+002
 0.248447E+002
 0.221174E+002
 0.192532E+002
 0.162620E+002
 0.131578E+002
 0.995750E+001
 0.668186E+001
 0.335420E+001
 0.000000E+000
 0.312687E+001
 0.623129E+001
 0.929159E+001
 0.122877E+002
 0.152017E+002
 0.180183E+002
 0.207248E+002
 0.233116E+002
 0.257717E+002
 0.281006E+002
 0.302959E+002
 0.323573E+002
 0.342859E+002
 0.360839E+002
 0.377545E+002
 0.393015E+002
 0.407290E+002
 0.420417E+002
 0.432438E+002
 0.443398E+002
 0.453341E+002
 0.462306E+002
 0.470333E+002
 0.477455E+002
 0.483706E+002
 0.489112E+002
 0.493700E+002
 0.497491E+002
 0.500503E+002
 0.502749E+002
 0.504240E+002
 0.504984E+002
 0.504984E+002
 0.504240E+002
 0.502749E+002
 0.500503E+002
 0.497491E+002
 0.493700E+002
 0.489112E+002
 0.483706E+002
 0.477455E+002
 0.470333E+002
 0.462306E+002
 0.453341E+002
 0.443398E+002
 0.432438E+002
 0.420417E+002
 0.407290E+002
 0.393015E+002
 0.377545E+002
 0.360839E+002
 0.342859E+002
 0.323573E+002
 0.302959E+002
 0.281006E+002
 0.257717E+002
 0.233116E+002
 0.207248E+002
 0.180183E+002
 0.152017E+002
 0.122877E+002
 0.929160E+001
 0.623129E+001
 0.312687E+001
 0.000000E+000
 0.292201E+001
 0.582482E+001
 0.868987E+001
 0.114998E+002
 0.142389E+002
 0.168934E+002
 0.194519E+002
 0.219052E+002
 0.242463E+002
 0.264704E+002
 0.285744E+002
 0.305570E+002
 0.324183E+002
 0.341594E+002
 0.357824E+002
 0.372900E+002
 0.386852E+002
 0.399716E+002
 0.411526E+002
 0.422320E+002
 0.432132E+002
 0.440997E+002
 0.448948E+002
 0.456015E+002
 0.462225E+002
 0.467604E+002
 0.472173E+002
 0.475951E+002
 0.478955E+002
 0.481196E+002
 0.482685E+002
 0.483428E+002
 0.483428E+002
 0.482685E+002
 0.481196E+002
 0.478955E+002
 0.475951E+002
 0.472173E+002
 0.467604E+002
 0.462225E+002
 0.456015E+002
 0.448948E+002
 0.440997E+002
 0.432132E+002
 0.422320E+002
 0.411526E+002
 0.399716E+002
 0.386852E+002
 0.372900E+002
 0.357824E+002
 0.341594E+002
 0.324183E+002
 0.305570E+002
 0.285744E+002
 0.264704E+002
 0.242463E+002
 0.219052E+002
 0.194519E+002
 0.168934E+002
 0.142389E+002
 0.114998E+002
 0.868988E+001
 0.582482E+001
 0.292201E+001
 0.000000E+000
 0.273633E+001
 0.545611E+001
 0.814329E+001
 0.107827E+002
 0.133606E+002
 0.158646E+002
 0.182843E+002
 0.206110E+002
 0.228380E+002
 0.249602E+002
 0.269742E+002
 0.288780E+002
 0.306709E+002
 0.323532E+002
 0.339259E+002
 0.353908E+002
 0.367503E+002
 0.380068E+002
 0.391631E+002
 0.402223E+002
 0.411870E+002
 0.420603E+002
 0.428448E+002
 0.435431E+002
 0.441576E+002
 0.446905E+002
 0.451436E+002
 0.455186E+002