# vtk DataFile Version 3.0
Solution data
ASCII
DATASET STRUCTURED_GRID
DIMENSIONS 128 128 1
POINTS 16384  double
      0.000004      0.000004      0.000000
      0.000012      0.000004      0.000000
      0.000020      0.000004      0.000000
      0.000027      0.000004      0.000000
      0.000035      0.000004      0.000000
      0.000043      0.000004      0.000000
      0.000051      0.000004      0.000000
      0.000059      0.000004      0.000000
      0.000066      0.000004      0.000000
      0.000074      0.000004      0.000000
      0.000082      0.000004      0.000000
      0.000090      0.000004      0.000000
      0.000098      0.000004      0.000000
      0.000105      0.000004      0.000000
      0.000113      0.000004      0.000000
      0.000121      0.000004      0.000000
      0.000129      0.000004      0.000000
      0.000137      0.000004      0.000000
      0.000145      0.000004      0.000000
      0.000152      0.000004      0.000000
      0.000160      0.000004      0.000000
      0.000168      0.000004      0.000000
      0.000176      0.000004      0.000000
      0.000184      0.000004      0.000000
      0.000191      0.000004      0.000000
      0.000199      0.000004      0.000000
      0.000207      0.000004      0.000000
      0.000215      0.000004      0.000000
      0.000223      0.000004      0.000000
      0.000230      0.000004      0.000000
      0.000238      0.000004      0.000000
      0.000246      0.000004      0.000000
      0.000254      0.000004      0.000000
      0.000262      0.000004      0.000000
      0.000270      0.000004      0.000000
      0.000277      0.000004      0.000000
      0.000285      0.000004      0.000000
      0.000293      0.000004      0.000000
      0.000301      0.000004      0.000000
      0.000309      0.000004      0.000000
      0.000316      0.000004      0.000000
      0.000324      0.000004      0.000000
      0.000332      0.000004      0.000000
      0.000340      0.000004      0.000000
      0.000348      0.000004      0.000000
      0.000355      0.000004      0.000000
      0.000363      0.000004      0.000000
      0.000371      0.000004      0.000000
      0.000379      0.000004      0.000000
      0.000387      0.000004      0.000000
      0.000395      0.000004      0.000000
      0.000402      0.000004      0.000000
      0.000410      0.000004      0.000000
      0.000418      0.000004      0.000000
      0.000426      0.000004      0.000000
      0.000434      0.000004      0.000000
      0.000441      0.000004      0.000000
      0.000449      0.000004      0.000000
      0.000457      0.000004      0.000000
      0.000465      0.000004      0.000000
      0.000473      0.000004      0.000000
      0.000480      0.000004      0.000000
      0.000488      0.000004      0.000000
      0.000496      0.000004      0.000000
      0.000504      0.000004      0.000000
      0.000512      0.000004      0.000000
      0.000520      0.000004      0.000000
      0.000527      0.000004      0.000000
      0.000535      0.000004      0.000000
      0.000543      0.000004      0.000000
      0.000551      0.000004      0.000000
      0.000559      0.000004      0.000000
      0.000566      0.000004      0.000000
      0.000574      0.000004      0.000000
      0.000582      0.000004      0.000000
      0.000590      0.000004      0.000000
      0.000598      0.000004      0.000000
      0.000605      0.000004      0.000000
      0.000613      0.000004      0.000000
      0.000621      0.000004      0.000000
      0.000629      0.000004      0.000000
      0.000637      0.000004      0.000000
      0.000645      0.000004      0.000000
      0.000652      0.000004      0.000000
      0.000660      0.000004      0.000000
      0.000668      0.000004      0.000000
      0.000676      0.000004      0.000000
      0.000684      0.000004      0.000000
      0.000691      0.000004      0.000000
      0.000699      0.000004      0.000000
      0.000707      0.000004      0.000000
      0.000715      0.000004      0.000000
      0.000723      0.000004      0.000000
      0.000730      0.000004      0.000000
      0.000738      0.000004      0.000000
      0.000746      0.000004      0.000000
      0.000754      0.000004      0.000000
      0.000762      0.000004      0.000000
      0.000770      0.000004      0.000000
      0.000777      0.000004      0.000000
      0.000785      0.000004      0.000000
      0.000793      0.000004      0.000000
      0.000801      0.000004      0.000000
      0.000809      0.000004      0.000000
      0.000816      0.000004      0.000000
      0.000824      0.000004      0.000000
      0.000832      0.000004      0.000000
      0.000840      0.000004      0.000000
      0.000848      0.000004      0.000000
      0.000855      0.000004      0.000000
      0.000863      0.000004      0.000000
      0.000871      0.000004      0.000000
      0.000879      0.000004      0.000000
      0.000887      0.000004      0.000000
      0.000895      0.000004      0.000000
      0.000902      0.000004      0.000000
      0.000910      0.000004      0.000000
      0.000918      0.000004      0.000000
      0.000926      0.000004      0.000000
      0.000934      0.000004      0.000000
      0.000941      0.000004      0.000000
      0.000949      0.000004      0.000000
      0.000957      0.000004      0.000000
      0.000965      0.000004      0.000000
      0.000973      0.000004      0.000000
      0.000980      0.000004      0.000000
      0.000988      0.000004      0.000000
      0.000996      0.000004      0.000000
      0.000004      0.000012      0.000000
      0.000012      0.000012      0.000000
      0.000020      0.000012      0.000000
      0.000027      0.000012      0.000000
      0.000035      0.000012      0.000000
      0.000043      0.000012      0.000000
      0.000051      0.000012      0.000000
      0.000059      0.000012      0.000000
      0.000066      0.000012      0.000000
      0.000074      0.000012      0.000000
      0.000082      0.000012      0.000000
      0.000090      0.000012      0.000000
      0.000098      0.000012      0.000000
      0.000105      0.000012      0.000000
      0.000113      0.000012      0.000000
      0.000121      0.000012      0.000000
      0.000129      0.000012      0.000000
      0.000137      0.000012      0.000000
      0.000145      0.000012      0.000000
      0.000152      0.000012      0.000000
      0.000160      0.000012      0.000000
      0.000168      0.000012      0.000000
      0.000176      0.000012      0.000000
      0.000184      0.000012      0.000000
      0.000191      0.000012      0.000000
      0.000199      0.000012      0.000000
      0.000207      0.000012      0.000000
      0.000215      0.000012      0.000000
      0.000223      0.000012      0.000000
      0.000230      0.000012      0.000000
      0.000238      0.000012      0.000000
      0.000246      0.000012      0.000000
      0.000254      0.000012      0.000000
      0.000262      0.000012      0.000000
      0.000270      0.000012      0.000000
      0.000277      0.000012      0.000000
      0.000285      0.000012      0.000000
      0.000293      0.000012      0.000000
      0.000301      0.000012      0.000000
      0.000309      0.000012      0.000000
      0.000316      0.000012      0.000000
      0.000324      0.000012      0.000000
      0.000332      0.000012      0.000000
      0.000340      0.000012      0.000000
      0.000348      0.000012      0.000000
      0.000355      0.000012      0.000000
      0.000363      0.000012      0.000000
      0.000371      0.000012      0.000000
      0.000379      0.000012      0.000000
      0.000387      0.000012      0.000000
      0.000395      0.000012      0.000000
      0.000402      0.000012      0.000000
      0.000410      0.000012      0.000000
      0.000418      0.000012      0.000000
      0.000426      0.000012      0.000000
      0.000434      0.000012      0.000000
      0.000441      0.000012      0.000000
      0.000449      0.000012      0.000000
      0.000457      0.000012      0.000000
      0.000465      0.000012      0.000000
      0.000473      0.000012      0.000000
      0.000480      0.000012      0.000000
      0.000488      0.000012      0.000000
      0.000496      0.000012      0.000000
      0.000504      0.000012      0.000000
      0.000512      0.000012      0.000000
      0.000520      0.000012      0.000000
      0.000527      0.000012      0.000000
      0.000535      0.000012      0.000000
      0.000543      0.000012      0.000000
      0.000551      0.000012      0.000000
      0.000559      0.000012      0.000000
      0.000566      0.000012      0.000000
      0.000574      0.000012      0.000000
      0.000582      0.000012      0.000000
      0.000590      0.000012      0.000000
      0.000598      0.000012      0.000000
      0.000605      0.000012      0.000000
      0.000613      0.000012      0.000000
      0.000621      0.000012      0.000000
      0.000629      0.000012      0.000000
      0.000637      0.000012      0.000000
      0.000645      0.000012      0.000000
      0.000652      0.000012      0.000000
      0.000660      0.000012      0.000000
      0.000668      0.000012      0.000000
      0.000676      0.000012      0.000000
      0.000684      0.000012      0.000000
      0.000691      0.000012      0.000000
      0.000699      0.000012      0.000000
      0.000707      0.000012      0.000000
      0.000715      0.000012      0.000000
      0.000723      0.000012      0.000000
      0.000730      0.000012      0.000000
      0.000738      0.000012      0.000000
      0.000746      0.000012      0.000000
      0.000754      0.000012      0.000000
      0.000762      0.000012      0.000000
      0.000770      0.000012      0.000000
      0.000777      0.000012      0.000000
      0.000785      0.000012      0.000000
[...]
POINT_DATA 16384
SCALARS rhoe double
LOOKUP_TABLE default
 0.916351E-013
 0.912487E-013
 0.915414E-013
 0.915548E-013
 0.916653E-013
 0.917465E-013
 0.918350E-013
 0.919215E-013
 0.920082E-013
 0.920945E-013
 0.921806E-013
 0.922664E-013
 0.923518E-013
 0.924370E-013
 0.925219E-013
 0.926064E-013
 0.926905E-013
 0.927742E-013
 0.928575E-013
 0.929404E-013
 0.930227E-013
 0.931046E-013
 0.931859E-013
 0.932666E-013
 0.933466E-013
 0.934260E-013
 0.935047E-013
 0.935825E-013
 0.936595E-013
 0.937356E-013
 0.938108E-013
 0.938849E-013
 0.939579E-013
 0.940298E-013
 0.941004E-013
 0.941698E-013
 0.942377E-013
 0.943042E-013
 0.943692E-013
 0.944326E-013
 0.944942E-013
 0.945541E-013
 0.946122E-013
 0.946683E-013
 0.947223E-013
 0.947743E-013
 0.948241E-013
 0.948716E-013
 0.949168E-013
 0.949595E-013
 0.949998E-013
 0.950375E-013
 0.950726E-013
 0.951050E-013
 0.951347E-013
 0.951615E-013
 0.951855E-013
 0.952066E-013
 0.952248E-013
 0.952400E-013
 0.952522E-013
 0.952613E-013
 0.952675E-013
 0.952705E-013
 0.952705E-013
 0.952675E-013
 0.952614E-013
 0.952522E-013
 0.952400E-013
 0.952248E-013
 0.952066E-013
 0.951855E-013
 0.951615E-013
 0.951347E-013
 0.951050E-013
 0.950726E-013
 0.950375E-013
 0.949998E-013
 0.949595E-013
 0.949168E-013
 0.948716E-013
 0.948241E-013
 0.947743E-013
 0.947223E-013
 0.946683E-013
 0.946122E-013
 0.945542E-013
 0.944943E-013
 0.944326E-013
 0.943693E-013
 0.943043E-013
 0.942378E-013
 0.941698E-013
 0.941005E-013
 0.940298E-013
 0.939580E-013
 0.938849E-013
 0.938108E-013
 0.937357E-013
 0.936595E-013
 0.935825E-013
 0.935047E-013
 0.934260E-013
 0.933467E-013
 0.932666E-013
 0.931859E-013
 0.931046E-013
 0.930228E-013
 0.929404E-013
 0.928575E-013
 0.927742E-013
 0.926905E-013
 0.926064E-013
 0.925219E-013
 0.924370E-013
 0.923519E-013
 0.922664E-013
 0.921806E-013
 0.920945E-013
 0.920082E-013
 0.919215E-013
 0.918350E-013
 0.917465E-013
 0.916654E-013
 0.915548E-013
 0.915414E-013
 0.912488E-013
 0.916351E-013
 0.912487E-013
 0.907809E-013
 0.909440E-013
 0.908015E-013
 0.907786E-013
 0.907170E-013
 0.906663E-013
 0.906131E-013
 0.905607E-013
 0.905083E-013
 0.904560E-013
 0.904040E-013
 0.903521E-013
 0.903004E-013
 0.902490E-013
 0.901977E-013
 0.901467E-013
 0.900959E-013
 0.900453E-013
 0.899950E-013
 0.899451E-013
 0.898954E-013
 0.898460E-013
 0.897971E-013
 0.897485E-013
 0.897003E-013
 0.896525E-013
 0.896053E-013
 0.895585E-013
 0.895123E-013
 0.894666E-013
 0.894216E-013
 0.893773E-013
 0.893336E-013
 0.892907E-013
 0.892485E-013
 0.892072E-013
 0.891668E-013
 0.891273E-013
 0.890888E-013
 0.890513E-013
 0.890149E-013
 0.889796E-013
 0.889454E-013
 0.889126E-013
 0.888810E-013
 0.888507E-013
 0.888218E-013
 0.887943E-013
 0.887682E-013
 0.887437E-013
 0.887208E-013
 0.886994E-013
 0.886797E-013
 0.886616E-013
 0.886453E-013
 0.886307E-013
 0.886178E-013
 0.886068E-013
 0.885975E-013
 0.885901E-013
 0.885845E-013
 0.885808E-013
 0.885789E-013
 0.885789E-013
 0.885808E-013
 0.885845E-013
 0.885901E-013
 0.885975E-013
 0.886068E-013
 0.886179E-013
 0.886307E-013
 0.886453E-013
 0.886617E-013
 0.886797E-013
 0.886994E-013
 0.887208E-013
 0.887438E-013
 0.887683E-013
 0.887943E-013
 0.888218E-013
 0.888507E-013
 0.888810E-013
 0.889126E-013
 0.889455E-013
 0.889796E-013
 0.890149E-013
 0.890513E-013
 0.890888E-013
 0.891273E-013
 0.891668E-013
 0.892073E-013
 0.892486E-013
 0.892907E-013
 0.893336E-013
 0.893773E-013
 0.894217E-013
 0.894667E-013
 0.895123E-013
 0.895586E-013
 0.896053E-013
 0.896526E-013
 0.897003E-013
 0.897485E-013
 0.897971E-013
 0.898461E-013
 0.898954E-013
 0.899451E-013
 0.899951E-013
 0.900454E-013
 0.900959E-013
 0.901467E-013
 0.901977E-013
 0.902490E-013
 0.903005E-013
 0.903521E-013
 0.904040E-013
 0.904561E-013
 0.905083E-013
 0.905607E-013
 0.906132E-013
 0.906663E-013
 0.907170E-013
 0.907786E-013
 0.908016E-013
 0.909440E-013
 0.907809E-013
 0.912488E-013
 0.915414E-013
 0.909440E-013
 0.912819E-013
 0.911788E-013
 0.912463E-013
 0.912584E-013
 0.912858E-013
 0.913094E-013
 0.913337E-013
 0.913578E-013
 0.913819E-013
 0.914058E-013
 0.914297E-013
 0.914535E-013
 0.914772E-013
 0.915008E-013
 0.915242E-013
 0.915476E-013
 0.915709E-013
 0.915940E-013
 0.916170E-013
 0.916398E-013
 0.916625E-013
 0.916850E-013
 0.917073E-013
 0.917295E-013
 0.917514E-013
 0.917732E-013
 0.917946E-013
 0.918159E-013
 0.918369E-013
 0.918575E-013
 0.918779E-013
 0.918980E-013
 0.919177E-013
 0.919371E-013
 0.919561E-013
 0.919746E-013
 0.919928E-013
 0.920105E-013
 0.920277E-013
 0.920444E-013
 0.920606E-013
 0.920763E-013
 0.920914E-013
 0.921059E-013
 0.921198E-013
 0.921331E-013
 0.921457E-013
 0.921577E-013
 0.921689E-013
 0.921795E-013
 0.921893E-013
 0.921983E-013
 0.922066E-013
 0.922141E-013
 0.922209E-013
 0.922268E-013
 0.922318E-013
 0.922361E-013
 0.922395E-013
 0.922421E-013
 0.922438E-013
 0.922446E-013
 0.922446E-013
 0.922438E-013
 0.922421E-013
 0.922395E-013
 0.922361E-013
 0.922318E-013
 0.922267E-013
 0.922208E-013
 0.922141E-013
 0.922066E-013
 0.921983E-013
 0.921893E-013
 0.921795E-013
 0.921689E-013
 0.921577E-013
 0.921457E-013
 0.921331E-013
 0.921198E-013
 0.921059E-013
 0.920914E-013
 0.920763E-013
 0.920606E-013
 0.920444E-013
 0.920276E-013
 0.920104E-013
 0.919927E-013
 0.919746E-013
 0.919560E-013
 0.919370E-013
 0.919177E-013
 0.918980E-013
 0.918779E-013
 0.918575E-013
 0.918368E-013
 0.918159E-013
 0.917946E-013
 0.917731E-013
 0.917514E-013
 0.917295E-013
 0.917073E-013
 0.916850E-013
 0.916625E-013
 0.916398E-013
 0.916169E-013
 0.915939E-013
 0.915708E-013
 0.915476E-013
 0.915242E-013
 0.915007E-013
 0.914772E-013
 0.914535E-013
 0.914297E-013
 0.914058E-013
 0.913819E-013
 0.913578E-013
 0.913337E-013
 0.913094E-013
 0.912857E-013
 0.912584E-013
 0.912463E-013
 0.911787E-013
 0.912818E-013
 0.909440E-013
 0.915414E-013
 0.915548E-013
 0.908015E-013
 0.911788E-013
 0.910097E-013
 0.910553E-013
 0.910306E-013
 0.910256E-013
 0.910158E-013
 0.910071E-013
 0.909982E-013
 0.909894E-013
 0.909806E-013
 0.909718E-013
 0.909631E-013
 0.909544E-013
 0.909457E-013
 0.909371E-013
 0.909285E-013
 0.909199E-013
 0.909114E-013
 0.909030E-013
 0.908946E-013
 0.908863E-013
 0.908780E-013
 0.908698E-013
 0.908616E-013
 0.908536E-013
 0.908456E-013
 0.908377E-013
 0.908299E-013
 0.908222E-013
 0.908146E-013
 0.908071E-013
 0.907997E-013
 0.907925E-013
 0.907854E-013
 0.907784E-013
 0.907716E-013
 0.907649E-013
 0.907584E-013
 0.907521E-013
 0.907459E-013
 0.907400E-013
 0.907342E-013
 0.907287E-013
 0.907234E-013
 0.907182E-013
 0.907134E-013
 0.907087E-013
 0.907043E-013
 0.907002E-013
 0.906963E-013
 0.906927E-013
 0.906894E-013
 0.906864E-013
 0.906836E-013
 0.906811E-013
 0.906790E-013
 0.906771E-013
 0.906755E-013
 0.906743E-013
 0.906733E-013
 0.906727E-013
 0.906724E-013
 0.906724E-013
 0.906727E-013
 0.906733E-013
 0.906743E-013
 0.906755E-013
 0.906771E-013
 0.906790E-013
 0.906811E-013
 0.906836E-013
 0.906864E-013
 0.906894E-013
 0.906927E-013
 0.906963E-013
 0.907002E-013
 0.907043E-013
 0.907087E-013
 0.907134E-013
 0.907183E-013
 0.907234E-013
 0.907287E-013
 0.907342E-013
 0.907400E-013
 0.907460E-013
 0.907521E-013
 0.907584E-013
 0.907649E-013
 0.907716E-013
 0.907784E-013
 0.907854E-013
 0.907925E-013
 0.907998E-013
 0.908071E-013
 0.908146E-013
 0.908222E-013
 0.908299E-013
 0.908377E-013
 0.908456E-013
 0.908536E-013
 0.908617E-013
 0.908698E-013
 0.908780E-013
 0.908863E-013
 0.908946E-013
 0.909030E-013
 0.909115E-013
 0.909199E-013
 0.909285E-013
 0.909371E-013
 0.909457E-013
 0.909544E-013
 0.909631E-013
 0.909718E-013
 0.909806E-013
 0.909894E-013
 0.909982E-013
 0.910071E-013
 0.910158E-013
 0.910256E-013
 0.910306E-013
 0.910553E-013
 0.910097E-013
 0.911787E-013
 0.908016E-013
 0.915548E-013
 0.916653E-013
 0.907786E-013
 0.912463E-013
 0.910553E-013
 0.911243E-013
 0.911079E-013
 0.911154E-013
 0.911171E-013
 0.911200E-013
 0.911226E-013
 0.911253E-013
 0.911280E-013
 0.911307E-013
 0.911333E-013
 0.911360E-013
 0.911386E-013
 0.911412E-013
 0.911439E-013
 0.911465E-013
 0.911490E-013
 0.911516E-013
 0.911542E-013
 0.911567E-013
 0.911592E-013
 0.911617E-013
 0.911642E-013
 0.911666E-013
 0.911691E-013
 0.911715E-013
 0.911738E-013
 0.911762E-013
 0.911785E-013
 0.911808E-013
 0.911830E-013
 0.911852E-013
 0.911874E-013
 0.911895E-013
 0.911916E-013
 0.911936E-013
 0.911956E-013
 0.911975E-013
 0.911994E-013
 0.912012E-013
 0.912030E-013
 0.912047E-013
 0.912063E-013
 0.912078E-013
 0.912093E-013
 0.912107E-013
 0.912121E-013
 0.912133E-013
 0.912145E-013
 0.912156E-013
 0.912166E-013
 0.912176E-013
 0.912184E-013
 0.912192E-013
 0.912198E-013
 0.912204E-013
 0.912209E-013
 0.912212E-013
 0.912215E-013
 0.912217E-013
 0.912218E-013
 0.912218E-013
 0.912217E-013
 0.912215E-013
 0.912212E-013
 0.912209E-013
 0.912204E-013
 0.912198E-013
 0.912192E-013
 0.912184E-013
 0.912176E-013
 0.912166E-013
 0.912156E-013
 0.912145E-013
 0.912133E-013
 0.912121E-013
 0.912107E-013
 0.912093E-013
 0.912078E-013
 0.912063E-013
 0.912047E-013
 0.912030E-013
 0.912012E-013
 0.911994E-013
 0.911975E-013
 0.911956E-013
 0.911936E-013
 0.911916E-013
 0.911895E-013
 0.911874E-013
 0.911852E-013
 0.911830E-013
 0.911808E-013
 0.911785E-013
 0.911762E-013
 0.911738E-013
 0.911715E-013
 0.911691E-013
 0.911666E-013
 0.911642E-013
 0.911617E-013
 0.911592E-013
 0.911567E-013
 0.911542E-013
 0.911516E-013
 0.911490E-013
 0.911465E-013
 0.911439E-013
 0.911412E-013
 0.911386E-013
 0.911360E-013
 0.911333E-013
 0.911307E-013
 0.911280E-013
 0.911253E-013
 0.911226E-013
 0.911200E-013
 0.911171E-013
 0.911154E-013
 0.911079E-013
 0.911243E-013
 0.910553E-013
 0.912463E-013
 0.907786E-013
 0.916654E-013
 0.917465E-013
 0.907170E-013
 0.912584E-013
 0.910306E-013
 0.911079E-013
 0.910846E-013
 0.910896E-013
 0.910876E-013
 0.910872E-013
 0.910864E-013
 0.910857E-013
 0.910850E-013
 0.910844E-013
 0.910837E-013
 0.910830E-013
 0.910823E-013
 0.910816E-013
 0.910809E-013
 0.910803E-013
 0.910796E-013
 0.910789E-013
 0.910783E-013
 0.910776E-013
 0.910770E-013
 0.910763E-013
 0.910757E-013
 0.910751E-013
 0.910744E-013
 0.910738E-013
 0.910732E-013
 0.910726E-013
 0.910720E-013
 0.910714E-013
 0.910708E-013
 0.910703E-013
 0.910697E-013
 0.910692E-013
 0.910686E-013
 0.910681E-013
 0.910676E-013
 0.910671E-013
 0.910666E-013
 0.910662E-013
 0.910657E-013
 0.910653E-013
 0.910649E-013
 0.910645E-013
 0.910641E-013
 0.910637E-013
 0.910634E-013
 0.910631E-013
 0.910628E-013
 0.910625E-013
 0.910622E-013
 0.910620E-013
 0.910618E-013
 0.910616E-013
 0.910614E-013
 0.910613E-013
 0.910612E-013
 0.910611E-013
 0.910610E-013
 0.910609E-013
 0.910609E-013
 0.910609E-013
 0.910609E-013
 0.910610E-013
 0.910611E-013
 0.910612E-013
 0.910613E-013
 0.910614E-013
 0.910616E-013
 0.910618E-013
 0.910620E-013
 0.910622E-013
 0.910625E-013
 0.910628E-013
 0.910631E-013
 0.910634E-013
 0.910637E-013
 0.910641E-013
 0.910645E-013
 0.910649E-013
 0.910653E-013
 0.910657E-013
 0.910662E-013
 0.910666E-013
 0.910671E-013
 0.910676E-013
 0.910681E-013
 0.910686E-013
 0.910692E-013
 0.910697E-013
 0.910703E-013
 0.910708E-013
 0.910714E-013
 0.910720E-013
 0.910726E-013
 0.910732E-013
 0.910738E-013
 0.910744E-013
 0.910751E-013
 0.910757E-013
 0.910763E-013
 0.910770E-013
 0.910776E-013
 0.910783E-013
 0.910789E-013
 0.910796E-013
 0.910803E-013
 0.910809E-013
 0.910816E-013
 0.910823E-013
 0.910830E-013
 0.910837E-013
 0.910844E-013
 0.910850E-013
 0.910857E-013
 0.910864E-013
 0.910872E-013
 0.910876E-013
 0.910896E-013
 0.910846E-013
 0.911079E-013
 0.910306E-013
 0.912584E-013
 0.907170E-013
 0.917465E-013
 0.918350E-013
 0.906663E-013
 0.912858E-013
 0.910256E-013
 0.911154E-013
 0.910896E-013
 0.910962E-013
 0.910949E-013
 0.910954E-013
 0.910955E-013
 0.910956E-013
 0.910958E-013
 0.910960E-013
 0.910961E-013
 0.910963E-013
 0.910964E-013
 0.910966E-013
 0.910967E-013
 0.910969E-013
 0.910970E-013
 0.910972E-013
 0.910973E-013
 0.910975E-013
 0.910976E-013
 0.910978E-013
 0.910979E-013
 0.910981E-013
 0.910982E-013
 0.910983E-013
 0.910985E-013
 0.910986E-013
 0.910988E-013
 0.910989E-013
 0.910990E-013
 0.910992E-013
 0.910993E-013
 0.910994E-013
 0.910995E-013
 0.910997E-013
 0.910998E-013
 0.910999E-013
 0.911000E-013
 0.911001E-013
 0.911002E-013
 0.911003E-013
 0.911004E-013
 0.911005E-013
 0.911006E-013
 0.911007E-013
 0.911008E-013
 0.911009E-013
 0.911009E-013
 0.911010E-013
 0.911011E-013
 0.911011E-013
 0.911012E-013
 0.911012E-013
 0.911013E-013
 0.911013E-013
 0.911013E-013
 0.911013E-013
 0.911014E-013
 0.911014E-013
 0.911014E-013
 0.911014E-013
 0.911014E-013
 0.911014E-013
 0.911013E-013
 0.911013E-013
 0.911013E-013
 0.911013E-013
 0.911012E-013
 0.911012E-013
 0.911011E-013
 0.911011E-013
 0.911010E-013
 0.911009E-013
 0.911009E-013
 0.911008E-013
 0.911007E-013
 0.911006E-013
 0.911005E-013
 0.911004E-013
 0.911003E-013
 0.911002E-013
 0.911001E-013
 0.911000E-013
 0.910999E-013
 0.910998E-013
 0.910997E-013
 0.910995E-013
 0.910994E-013
 0.910993E-013
 0.910992E-013
 0.910990E-013
 0.910989E-013
 0.910988E-013
 0.910986E-013
 0.910985E-013
 0.910983E-013
 0.910982E-013
 0.910981E-013
 0.910979E-013
 0.910978E-013
 0.910976E-013
 0.910975E-013
 0.910973E-013
 0.910972E-013
 0.910970E-013
 0.910969E-013
 0.910967E-013
 0.910966E-013
 0.910964E-013
 0.910963E-013
 0.910961E-013
 0.910960E-013
 0.910958E-013
 0.910956E-013
 0.910955E-013
 0.910954E-013
 0.910949E-013
 0.910962E-013
 0.910896E-013
 0.911154E-013
 0.910256E-013
 0.912857E-013
 0.906663E-013
 0.918350E-013
 0.919215E-013
 0.906131E-013
 0.913094E-013
 0.910158E-013
 0.911171E-013
 0.910876E-013
 0.910949E-013
 0.910933E-013
 0.910936E-013
 0.910935E-013
 0.910935E-013
 0.910934E-013
 0.910934E-013
 0.910934E-013
 0.910934E-013
 0.910933E-013
 0.910933E-013
 0.910933E-013
 0.910932E-013
 0.910932E-013
 0.910932E-013
 0.910931E-013
 0.910931E-013
 0.910931E-013
 0.910931E-013
 0.910930E-013
 0.910930E-013
 0.910930E-013
 0.910930E-013
 0.910929E-013
 0.910929E-013
 0.910929E-013
 0.910929E-013
 0.910928E-013
 0.910928E-013
 0.910928E-013
 0.910928E-013
 0.910928E-013
 0.910927E-013
 0.910927E-013
 0.910927E-013
 0.910927E-013
 0.910927E-013
 0.910927E-013
 0.910926E-013
 0.910926E-013
 0.910926E-013
 0.910926E-013
 0.910926E-013
 0.910926E-013
 0.910926E-013
 0.910926E-013
 0.910926E-013
 0.910926E-013
 0.910925E-013
 0.910925E-013
 0.910925E-013
 0.910925E-013
 0.910925E-013
 0.910925E-013
 0.910925E-013
 0.910925E-013
 0.910925E-013
 0.910925E-013
 0.910925E-013
 0.910925E-013
 0.910925E-013
 0.910925E-013
 0.910925E-013
 0.910925E-013
 0.910925E-013
 0.910925E-013
 0.910925E-013
 0.910925E-013
 0.910926E-013
 0.910926E-013
 0.910926E-013
 0.910926E-013
 0.910926E-013
 0.910926E-013
 0.910926E-013
 0.910926E-013
 0.910926E-013
 0.910926E-013
 0.910927E-013
 0.910927E-013
 0.910927E-013
 0.910927E-013
 0.910927E-013
 0.910927E-013
 0.910928E-013
 0.910928E-013
 0.910928E-013
 0.910928E-013
 0.910928E-013
 0.910929E-013
 0.910929E-013
 0.910929E-013
 0.910929E-013
 0.910930E-013
 0.910930E-013
 0.910930E-013
 0.910930E-013
 0.910931E-013
 0.910931E-013
 0.910931E-013
 0.910932E-013
 0.910932E-013
 0.910932E-013
 0.910932E-013
 0.910933E-013
 0.910933E-013
 0.910933E-013
 0.910934E-013
 0.910934E-013
 0.910934E-013
 0.910934E-013
 0.910935E-013
 0.910935E-013
 0.910936E-013
 0.910933E-013
 0.910949E-013
 0.910876E-013
 0.911171E-013
 0.910158E-013
 0.913094E-013
 0.906132E-013
 0.919215E-013
 0.920082E-013
 0.905607E-013
 0.913337E-013
 0.910071E-013
 0.911200E-013
 0.910872E-013
 0.910954E-013
 0.910936E-013
 0.910939E-013
 0.910939E-013
 0.910939E-013
 0.910939E-013
 0.910939E-013
 0.910939E-013
 0.910939E-013
 0.910939E-013
 0.910939E-013
 0.910939E-013
 0.910939E-013
 0.910940E-013
 0.910940E-013
 0.910940E-013
 0.910940E-013
 0.910940E-013
 0.910940E-013
 0.910940E-013
 0.910940E-013
 0.910940E-013
 0.910940E-013
 0.910940E-013
 0.910940E-013
 0.910940E-013
 0.910940E-013
 0.910941E-013
 0.910941E-013
 0.910941E-013
 0.910941E-013
 0.910941E-013
 0.910941E-013
 0.910941E-013
 0.910941E-013
 0.910941E-013
 0.910941E-013
 0.910942E-013
 0.910942E-013
 0.910942E-013
 0.910942E-013
 0.910942E-013
 0.910942E-013
 0.910942E-013
 0.910942E-013
 0.910942E-013
 0.910942E-013
 0.910942E-013
 0.910942E-013
 0.910943E-013
 0.910943E-013
 0.910943E-013
 0.910943E-013
 0.910943E-013
 0.910943E-013
 0.910943E-013
 0.910943E-013
 0.910943E-013
 0.910943E-013
 0.910943E-013
 0.910943E-013
 0.910943E-013
 0.910943E-013
 0.910943E-013
 0.910943E-013
 0.910943E-013
 0.910943E-013
 0.910942E-013
 0.910942E-013
 0.910942E-013
 0.910942E-013
 0.910942E-013
 0.910942E-013
 0.910942E-013
 0.910942E-013
 0.910942E-013
 0.910942E-013
 0.910942E-013
 0.910942E-013
 0.910941E-013
 0.910941E-013
 0.910941E-013
 0.910941E-013
 0.910941E-013
 0.910941E-013
 0.910941E-013
 0.910941E-013
 0.910941E-013
 0.910941E-013
 0.910940E-013
 0.910940E-013
 0.910940E-013
 0.910940E-013
 0.910940E-013
 0.910940E-013
 0.910940E-013
 0.910940E-013
 0.910940E-013
 0.910940E-013
 0.910940E-013
 0.910940E-013
 0.910940E-013
 0.910940E-013
 0.910939E-013
 0.910939E-013
 0.910939E-013
 0.910939E-013
 0.910939E-013
 0.910939E-013
 0.910939E-013
 0.910939E-013
 0.910939E-013
 0.910939E-013
 0.910939E-013
 0.910936E-013
 0.910954E-013
 0.910872E-013
 0.911200E-013
 0.910071E-013
 0.913337E-013
 0.905607E-013
 0.920082E-013
 0.920945E-013
 0.905083E-013
 0.913578E-013
 0.909982E-013
 0.911226E-013
 0.910864E-013
 0.910955E-013
 0.910935E-013
 0.910939E-013
 0.910938E-013
 0.910938E-013
 0.910938E-013
 0.910938E-013
 0.910938E-013
 0.910938E-013
 0.910938E-013
 0.910938E-013
 0.910938E-013
 0.910938E-013
 0.910938E-013
 0.910938E-013
 0.910938E-013
 0.910938E-013
 0.910938E-013
 0.910938E-013
 0.910938E-013
 0.910938E-013
 0.910938E-013
 0.910938E-013
 0.910938E-013
 0.910938E-013
 0.910938E-013
 0.910938E-013
 0.910939E-013
 0.910939E-013
 0.910939E-013
 0.910939E-013
 0.910939E-013
 0.910939E-013
 0.910939E-013
 0.910939E-013
 0.910939E-013
 0.910939E-013
 0.910939E-013
 0.910939E-013
 0.910939E-013
 0.910939E-013
 0.910939E-013
 0.910939E-013
 0.910940E-013
 0.910940E-013
 0.910940E-013
 0.910940E-013
 0.910940E-013
 0.910940E-013
 0.910940E-013
 0.910940E-013
 0.910940E-013
 0.910940E-013
 0.910940E-013
 0.910940E-013
 0.910940E-013
 0.910940E-013
 0.910940E-013
 0.910940E-013
 0.910940E-013
 0.910940E-013
 0.910940E-013
 0.910940E-013
 0.910940E-013
 0.910940E-013
 0.910940E-013
 0.910940E-013
 0.910940E-013
 0.910940E-013
 0.910940E-013
 0.910940E-013
 0.910940E-013
 0.910940E-013
 0.910939E-013
 0.910939E-013
 0.910939E-013
 0.910939E-013
 0.910939E-013
 0.910939E-013
 0.910939E-013
 0.910939E-013
 0.910939E-013
 0.910939E-013
 0.910939E-013
 0.910939E-013
 0.910939E-013
 0.910939E-013
 0.910939E-013
 0.910939E-013
 0.910939E-013
 0.910938E-013
 0.910938E-013
 0.910938E-013
 0.910938E-013
 0.910938E-013
 0.910938E-013
 0.910938E-013
 0.910938E-013
 0.910938E-013
 0.910938E-013
 0.910938E-013
 0.910938E-013
 0.910938E-013
 0.910938E-013
 0.910938E-013
 0.910938E-013
 0.910938E-013
 0.910938E-013
 0.910938E-013
 0.910938E-013
 0.910938E-013
 0.910938E-013
 0.910938E-013
 0.910939E-013
 0.910935E-013
 0.910955E-013
 0.910864E-013
 0.911226E-013
 0.909982E-013
 0.913578E-013
 0.905083E-013
 0.920945E-013
 0.921806E-013
 0.904560E-013
 0.913819E-013
 0.909894E-013
 0.911253E-013
 0.910857E-013
 0.910956E-013
 0.910935E-013
 0.910939E-013
 0.910938E-013
 0.910938E-013
 0.910938E-013
 0.910938E-013
 0.910938E-013
 0.910938E-013
 0.910938E-013
 0.910938E-013
 0.910938E-013
 0.910938E-013
 0.910938E-013
 0.910938E-013
 0.910938E-013
 0.910939E-013
 0.910939E-013
 0.910939E-013
 0.910939E-013
 0.910939E-013
 0.910939E-013
 0.910939E-013
 0.910939E-013
 0.910939E-013
 0.910939E-013
 0.910939E-013
 0.910939E-013
 0.910939E-013
 0.910939E-013
 0.910939E-013
 0.910939E-013
 0.910939E-013
 0.910939E-013
 0.910939E-013
 0.910940E-013
 0.910940E-013
 0.910940E-013
 0.910940E-013
 0.910940E-013
 0.910940E-013
 0.910940E-013
 0.910940E-013