# vtk DataFile Version 3.0
Solution data
ASCII
DATASET STRUCTURED_GRID
DIMENSIONS 128 128 1
POINTS 16384  double
      0.000004      0.000004      0.000000
      0.000012      0.000004      0.000000
      0.000020      0.000004      0.000000
      0.000027      0.000004      0.000000
      0.000035      0.000004      0.000000
      0.000043      0.000004      0.000000
      0.000051      0.000004      0.000000
      0.000059      0.000004      0.000000
      0.000066      0.000004      0.000000
      0.000074      0.000004      0.000000
      0.000082      0.000004      0.000000
      0.000090      0.000004      0.000000
      0.000098      0.000004      0.000000
      0.000105      0.000004      0.000000
      0.000113      0.000004      0.000000
      0.000121      0.000004      0.000000
      0.000129      0.000004      0.000000
      0.000137      0.000004      0.000000
      0.000145      0.000004      0.000000
      0.000152      0.000004      0.000000
      0.000160      0.000004      0.000000
      0.000168      0.000004      0.000000
      0.000176      0.000004      0.000000
      0.000184      0.000004      0.000000
      0.000191      0.000004      0.000000
      0.000199      0.000004      0.000000
      0.000207      0.000004      0.000000
      0.000215      0.000004      0.000000
      0.000223      0.000004      0.000000
      0.000230      0.000004      0.000000
      0.000238      0.000004      0.000000
      0.000246      0.000004      0.000000
      0.000254      0.000004      0.000000
      0.000262      0.000004      0.000000
      0.000270      0.000004      0.000000
      0.000277      0.000004      0.000000
      0.000285      0.000004      0.000000
      0.000293      0.000004      0.000000
      0.000301      0.000004      0.000000
      0.000309      0.000004      0.000000
      0.000316      0.000004      0.000000
      0.000324      0.000004      0.000000
      0.000332      0.000004      0.000000
      0.000340      0.000004      0.000000
      0.000348      0.000004      0.000000
      0.000355      0.000004      0.000000
      0.000363      0.000004      0.000000
      0.000371      0.000004      0.000000
      0.000379      0.000004      0.000000
      0.000387      0.000004      0.000000
      0.000395      0.000004      0.000000
      0.000402      0.000004      0.000000
      0.000410      0.000004      0.000000
      0.000418      0.000004      0.000000
      0.000426      0.000004      0.000000
      0.000434      0.000004      0.000000
      0.000441      0.000004      0.000000
      0.000449      0.000004      0.000000
      0.000457      0.000004      0.000000
      0.000465      0.000004      0.000000
      0.000473      0.000004      0.000000
      0.000480      0.000004      0.000000
      0.000488      0.000004      0.000000
      0.000496      0.000004      0.000000
      0.000504      0.000004      0.000000
      0.000512      0.000004      0.000000
      0.000520      0.000004      0.000000
      0.000527      0.000004      0.000000
      0.000535      0.000004      0.000000
      0.000543      0.000004      0.000000
      0.000551      0.000004      0.000000
      0.000559      0.000004      0.000000
      0.000566      0.000004      0.000000
      0.000574      0.000004      0.000000
      0.000582      0.000004      0.000000
      0.000590      0.000004      0.000000
      0.000598      0.000004      0.000000
      0.000605      0.000004      0.000000
      0.000613      0.000004      0.000000
      0.000621      0.000004      0.000000
      0.000629      0.000004      0.000000
      0.000637      0.000004      0.000000
      0.000645      0.000004      0.000000
      0.000652      0.000004      0.000000
      0.000660      0.000004      0.000000
      0.000668      0.000004      0.000000
      0.000676      0.000004      0.000000
      0.000684      0.000004      0.000000
      0.000691      0.000004      0.000000
      0.000699      0.000004      0.000000
      0.000707      0.000004      0.000000
      0.000715      0.000004      0.000000
      0.000723      0.000004      0.000000
      0.000730      0.000004      0.000000
      0.000738      0.000004      0.000000
      0.000746      0.000004      0.000000
      0.000754      0.000004      0.000000
      0.000762      0.000004      0.000000
      0.000770      0.000004      0.000000
      0.000777      0.000004      0.000000
      0.000785      0.000004      0.000000
      0.000793      0.000004      0.000000
      0.000801      0.000004      0.000000
      0.000809      0.000004      0.000000
      0.000816      0.000004      0.000000
      0.000824      0.000004      0.000000
      0.000832      0.000004      0.000000
      0.000840      0.000004      0.000000
      0.000848      0.000004      0.000000
      0.000855      0.000004      0.000000
      0.000863      0.000004      0.000000
      0.000871      0.000004      0.000000
      0.000879      0.000004      0.000000
      0.000887      0.000004      0.000000
      0.000895      0.000004      0.000000
      0.000902      0.000004      0.000000
      0.000910      0.000004      0.000000
      0.000918      0.000004      0.000000
      0.000926      0.000004      0.000000
      0.000934      0.000004      0.000000
      0.000941      0.000004      0.000000
      0.000949      0.000004      0.000000
      0.000957      0.000004      0.000000
      0.000965      0.000004      0.000000
      0.000973      0.000004      0.000000
      0.000980      0.000004      0.000000
      0.000988      0.000004      0.000000
      0.000996      0.000004      0.000000
      0.000004      0.000012      0.000000
      0.000012      0.000012      0.000000
      0.000020      0.000012      0.000000
      0.000027      0.000012      0.000000
      0.000035      0.000012      0.000000
      0.000043      0.000012      0.000000
      0.000051      0.000012      0.000000
      0.000059      0.000012      0.000000
      0.000066      0.000012      0.000000
      0.000074      0.000012      0.000000
      0.000082      0.000012      0.000000
      0.000090      0.000012      0.000000
      0.000098      0.000012      0.000000
      0.000105      0.000012      0.000000
      0.000113      0.000012      0.000000
      0.000121      0.000012      0.000000
      0.000129      0.000012      0.000000
      0.000137      0.000012      0.000000
      0.000145      0.000012      0.000000
      0.000152      0.000012      0.000000
      0.000160      0.000012      0.000000
      0.000168      0.000012      0.000000
      0.000176      0.000012      0.000000
      0.000184      0.000012      0.000000
      0.000191      0.000012      0.000000
      0.000199      0.000012      0.000000
      0.000207      0.000012      0.000000
      0.000215      0.000012      0.000000
      0.000223      0.000012      0.000000
      0.000230      0.000012      0.000000
      0.000238      0.000012      0.000000
      0.000246      0.000012      0.000000
      0.000254      0.000012      0.000000
      0.000262      0.000012      0.000000
      0.000270      0.000012      0.000000
      0.000277      0.000012      0.000000
      0.000285      0.000012      0.000000
      0.000293      0.000012      0.000000
      0.000301      0.000012      0.000000
      0.000309      0.000012      0.000000
      0.000316      0.000012      0.000000
      0.000324      0.000012      0.000000
      0.000332      0.000012      0.000000
      0.000340      0.000012      0.000000
      0.000348      0.000012      0.000000
      0.000355      0.000012      0.000000
      0.000363      0.000012      0.000000
      0.000371      0.000012      0.000000
      0.000379      0.000012      0.000000
      0.000387      0.000012      0.000000
      0.000395      0.000012      0.000000
      0.000402      0.000012      0.000000
      0.000410      0.000012      0.000000
      0.000418      0.000012      0.000000
      0.000426      0.000012      0.000000
      0.000434      0.000012      0.000000
      0.000441      0.000012      0.000000
      0.000449      0.000012      0.000000
      0.000457      0.000012      0.000000
      0.000465      0.000012      0.000000
      0.000473      0.000012      0.000000
      0.000480      0.000012      0.000000
      0.000488      0.000012      0.000000
      0.000496      0.000012      0.000000
      0.000504      0.000012      0.000000
      0.000512      0.000012      0.000000
      0.000520      0.000012      0.000000
      0.000527      0.000012      0.000000
      0.000535      0.000012      0.000000
      0.000543      0.000012      0.000000
      0.000551      0.000012      0.000000
      0.000559      0.000012      0.000000
      0.000566      0.000012      0.000000
      0.000574      0.000012      0.000000
      0.000582      0.000012      0.000000
      0.000590      0.000012      0.000000
      0.000598      0.000012      0.000000
      0.000605      0.000012      0.000000
      0.000613      0.000012      0.000000
      0.000621      0.000012      0.000000
      0.000629      0.000012      0.000000
      0.000637      0.000012      0.000000
      0.000645      0.000012      0.000000
      0.000652      0.000012      0.000000
      0.000660      0.000012      0.000000
      0.000668      0.000012      0.000000
      0.000676      0.000012      0.000000
      0.000684      0.000012      0.000000
      0.000691      0.000012      0.000000
      0.000699      0.000012      0.000000
      0.000707      0.000012      0.000000
      0.000715      0.000012      0.000000
      0.000723      0.000012      0.000000
      0.000730      0.000012      0.000000
      0.000738      0.000012      0.000000
      0.000746      0.000012      0.000000
      0.000754      0.000012      0.000000
      0.000762      0.000012      0.000000
      0.000770      0.000012      0.000000
      0.000777      0.000012      0.000000
      0.000785      0.000012      0.000000
[...]
POINT_DATA 16384
SCALARS rhoe double
LOOKUP_TABLE default
 0.916624E-013
 0.912204E-013
 0.915499E-013
 0.915315E-013
 0.916482E-013
 0.917189E-013
 0.918031E-013
 0.918834E-013
 0.919643E-013
 0.920448E-013
 0.921251E-013
 0.922051E-013
 0.922848E-013
 0.923642E-013
 0.924433E-013
 0.925221E-013
 0.926005E-013
 0.926786E-013
 0.927562E-013
 0.928335E-013
 0.929102E-013
 0.929865E-013
 0.930622E-013
 0.931373E-013
 0.932119E-013
 0.932858E-013
 0.933589E-013
 0.934314E-013
 0.935030E-013
 0.935738E-013
 0.936437E-013
 0.937126E-013
 0.937805E-013
 0.938473E-013
 0.939129E-013
 0.939773E-013
 0.940404E-013
 0.941022E-013
 0.941625E-013
 0.942213E-013
 0.942786E-013
 0.943341E-013
 0.943880E-013
 0.944400E-013
 0.944902E-013
 0.945383E-013
 0.945845E-013
 0.946286E-013
 0.946704E-013
 0.947101E-013
 0.947474E-013
 0.947823E-013
 0.948148E-013
 0.948449E-013
 0.948723E-013
 0.948972E-013
 0.949195E-013
 0.949390E-013
 0.949558E-013
 0.949699E-013
 0.949812E-013
 0.949897E-013
 0.949953E-013
 0.949982E-013
 0.949982E-013
 0.949953E-013
 0.949897E-013
 0.949812E-013
 0.949699E-013
 0.949558E-013
 0.949390E-013
 0.949195E-013
 0.948972E-013
 0.948724E-013
 0.948449E-013
 0.948149E-013
 0.947824E-013
 0.947474E-013
 0.947101E-013
 0.946705E-013
 0.946286E-013
 0.945845E-013
 0.945384E-013
 0.944902E-013
 0.944400E-013
 0.943880E-013
 0.943342E-013
 0.942786E-013
 0.942214E-013
 0.941626E-013
 0.941022E-013
 0.940405E-013
 0.939774E-013
 0.939129E-013
 0.938473E-013
 0.937805E-013
 0.937126E-013
 0.936437E-013
 0.935738E-013
 0.935031E-013
 0.934314E-013
 0.933590E-013
 0.932858E-013
 0.932119E-013
 0.931374E-013
 0.930622E-013
 0.929865E-013
 0.929102E-013
 0.928335E-013
 0.927563E-013
 0.926786E-013
 0.926006E-013
 0.925221E-013
 0.924434E-013
 0.923642E-013
 0.922848E-013
 0.922051E-013
 0.921251E-013
 0.920448E-013
 0.919643E-013
 0.918834E-013
 0.918031E-013
 0.917189E-013
 0.916482E-013
 0.915315E-013
 0.915499E-013
 0.912204E-013
 0.916624E-013
 0.912204E-013
 0.907620E-013
 0.909421E-013
 0.907784E-013
 0.907666E-013
 0.906986E-013
 0.906487E-013
 0.905939E-013
 0.905405E-013
 0.904870E-013
 0.904337E-013
 0.903806E-013
 0.903277E-013
 0.902750E-013
 0.902225E-013
 0.901702E-013
 0.901182E-013
 0.900664E-013
 0.900149E-013
 0.899636E-013
 0.899127E-013
 0.898620E-013
 0.898118E-013
 0.897619E-013
 0.897124E-013
 0.896633E-013
 0.896147E-013
 0.895666E-013
 0.895190E-013
 0.894720E-013
 0.894256E-013
 0.893798E-013
 0.893347E-013
 0.892903E-013
 0.892467E-013
 0.892038E-013
 0.891619E-013
 0.891208E-013
 0.890807E-013
 0.890416E-013
 0.890035E-013
 0.889665E-013
 0.889307E-013
 0.888961E-013
 0.888627E-013
 0.888307E-013
 0.888000E-013
 0.887706E-013
 0.887428E-013
 0.887164E-013
 0.886915E-013
 0.886682E-013
 0.886466E-013
 0.886266E-013
 0.886083E-013
 0.885917E-013
 0.885769E-013
 0.885639E-013
 0.885527E-013
 0.885433E-013
 0.885358E-013
 0.885302E-013
 0.885264E-013
 0.885245E-013
 0.885245E-013
 0.885264E-013
 0.885302E-013
 0.885358E-013
 0.885433E-013
 0.885527E-013
 0.885639E-013
 0.885769E-013
 0.885917E-013
 0.886083E-013
 0.886266E-013
 0.886466E-013
 0.886683E-013
 0.886915E-013
 0.887164E-013
 0.887428E-013
 0.887706E-013
 0.888000E-013
 0.888307E-013
 0.888628E-013
 0.888961E-013
 0.889307E-013
 0.889666E-013
 0.890035E-013
 0.890416E-013
 0.890807E-013
 0.891208E-013
 0.891619E-013
 0.892039E-013
 0.892467E-013
 0.892903E-013
 0.893347E-013
 0.893798E-013
 0.894256E-013
 0.894720E-013
 0.895190E-013
 0.895666E-013
 0.896147E-013
 0.896633E-013
 0.897124E-013
 0.897619E-013
 0.898118E-013
 0.898621E-013
 0.899127E-013
 0.899636E-013
 0.900149E-013
 0.900664E-013
 0.901182E-013
 0.901703E-013
 0.902225E-013
 0.902750E-013
 0.903277E-013
 0.903806E-013
 0.904337E-013
 0.904870E-013
 0.905405E-013
 0.905939E-013
 0.906487E-013
 0.906986E-013
 0.907666E-013
 0.907784E-013
 0.909421E-013
 0.907620E-013
 0.912204E-013
 0.915499E-013
 0.909421E-013
 0.913186E-013
 0.911883E-013
 0.912772E-013
 0.912852E-013
 0.913190E-013
 0.913454E-013
 0.913736E-013
 0.914012E-013
 0.914289E-013
 0.914564E-013
 0.914838E-013
 0.915112E-013
 0.915384E-013
 0.915655E-013
 0.915924E-013
 0.916193E-013
 0.916460E-013
 0.916725E-013
 0.916989E-013
 0.917251E-013
 0.917512E-013
 0.917770E-013
 0.918027E-013
 0.918281E-013
 0.918533E-013
 0.918782E-013
 0.919029E-013
 0.919272E-013
 0.919513E-013
 0.919750E-013
 0.919984E-013
 0.920214E-013
 0.920440E-013
 0.920662E-013
 0.920880E-013
 0.921092E-013
 0.921300E-013
 0.921503E-013
 0.921700E-013
 0.921892E-013
 0.922078E-013
 0.922257E-013
 0.922430E-013
 0.922597E-013
 0.922756E-013
 0.922908E-013
 0.923052E-013
 0.923189E-013
 0.923318E-013
 0.923439E-013
 0.923551E-013
 0.923655E-013
 0.923750E-013
 0.923835E-013
 0.923912E-013
 0.923980E-013
 0.924038E-013
 0.924087E-013
 0.924126E-013
 0.924155E-013
 0.924174E-013
 0.924184E-013
 0.924184E-013
 0.924174E-013
 0.924155E-013
 0.924125E-013
 0.924086E-013
 0.924038E-013
 0.923980E-013
 0.923912E-013
 0.923835E-013
 0.923749E-013
 0.923655E-013
 0.923551E-013
 0.923439E-013
 0.923318E-013
 0.923189E-013
 0.923052E-013
 0.922908E-013
 0.922756E-013
 0.922596E-013
 0.922430E-013
 0.922257E-013
 0.922078E-013
 0.921892E-013
 0.921700E-013
 0.921503E-013
 0.921300E-013
 0.921092E-013
 0.920879E-013
 0.920662E-013
 0.920440E-013
 0.920214E-013
 0.919984E-013
 0.919750E-013
 0.919513E-013
 0.919272E-013
 0.919028E-013
 0.918782E-013
 0.918533E-013
 0.918281E-013
 0.918027E-013
 0.917770E-013
 0.917512E-013
 0.917251E-013
 0.916989E-013
 0.916725E-013
 0.916459E-013
 0.916192E-013
 0.915924E-013
 0.915654E-013
 0.915384E-013
 0.915111E-013
 0.914838E-013
 0.914564E-013
 0.914289E-013
 0.914012E-013
 0.913735E-013
 0.913454E-013
 0.913189E-013
 0.912852E-013
 0.912772E-013
 0.911883E-013
 0.913186E-013
 0.909421E-013
 0.915499E-013
 0.915315E-013
 0.907784E-013
 0.911883E-013
 0.909802E-013
 0.910447E-013
 0.910075E-013
 0.910030E-013
 0.909894E-013
 0.909781E-013
 0.909664E-013
 0.909547E-013
 0.909431E-013
 0.909316E-013
 0.909201E-013
 0.909086E-013
 0.908972E-013
 0.908858E-013
 0.908745E-013
 0.908632E-013
 0.908521E-013
 0.908409E-013
 0.908299E-013
 0.908189E-013
 0.908080E-013
 0.907972E-013
 0.907865E-013
 0.907759E-013
 0.907654E-013
 0.907550E-013
 0.907447E-013
 0.907346E-013
 0.907246E-013
 0.907147E-013
 0.907051E-013
 0.906955E-013
 0.906862E-013
 0.906770E-013
 0.906680E-013
 0.906593E-013
 0.906507E-013
 0.906424E-013
 0.906343E-013
 0.906265E-013
 0.906189E-013
 0.906116E-013
 0.906046E-013
 0.905979E-013
 0.905915E-013
 0.905854E-013
 0.905797E-013
 0.905742E-013
 0.905691E-013
 0.905644E-013
 0.905600E-013
 0.905560E-013
 0.905524E-013
 0.905492E-013
 0.905463E-013
 0.905439E-013
 0.905418E-013
 0.905402E-013
 0.905389E-013
 0.905381E-013
 0.905377E-013
 0.905377E-013
 0.905381E-013
 0.905389E-013
 0.905402E-013
 0.905418E-013
 0.905439E-013
 0.905463E-013
 0.905492E-013
 0.905524E-013
 0.905560E-013
 0.905600E-013
 0.905644E-013
 0.905691E-013
 0.905742E-013
 0.905797E-013
 0.905854E-013
 0.905915E-013
 0.905979E-013
 0.906047E-013
 0.906117E-013
 0.906190E-013
 0.906265E-013
 0.906343E-013
 0.906424E-013
 0.906507E-013
 0.906593E-013
 0.906681E-013
 0.906770E-013
 0.906862E-013
 0.906955E-013
 0.907051E-013
 0.907148E-013
 0.907246E-013
 0.907346E-013
 0.907448E-013
 0.907550E-013
 0.907654E-013
 0.907759E-013
 0.907865E-013
 0.907972E-013
 0.908080E-013
 0.908189E-013
 0.908299E-013
 0.908410E-013
 0.908521E-013
 0.908633E-013
 0.908745E-013
 0.908858E-013
 0.908972E-013
 0.909086E-013
 0.909201E-013
 0.909316E-013
 0.909431E-013
 0.909547E-013
 0.909664E-013
 0.909781E-013
 0.909894E-013
 0.910030E-013
 0.910075E-013
 0.910447E-013
 0.909802E-013
 0.911883E-013
 0.907784E-013
 0.915315E-013
 0.916482E-013
 0.907666E-013
 0.912772E-013
 0.910447E-013
 0.911413E-013
 0.911147E-013
 0.911277E-013
 0.911296E-013
 0.911343E-013
 0.911383E-013
 0.911424E-013
 0.911465E-013
 0.911506E-013
 0.911546E-013
 0.911587E-013
 0.911627E-013
 0.911667E-013
 0.911707E-013
 0.911747E-013
 0.911786E-013
 0.911826E-013
 0.911865E-013
 0.911903E-013
 0.911942E-013
 0.911980E-013
 0.912018E-013
 0.912055E-013
 0.912092E-013
 0.912129E-013
 0.912165E-013
 0.912201E-013
 0.912236E-013
 0.912271E-013
 0.912305E-013
 0.912338E-013
 0.912371E-013
 0.912404E-013
 0.912435E-013
 0.912466E-013
 0.912496E-013
 0.912526E-013
 0.912554E-013
 0.912582E-013
 0.912609E-013
 0.912634E-013
 0.912659E-013
 0.912683E-013
 0.912705E-013
 0.912727E-013
 0.912747E-013
 0.912766E-013
 0.912784E-013
 0.912801E-013
 0.912817E-013
 0.912831E-013
 0.912844E-013
 0.912855E-013
 0.912865E-013
 0.912874E-013
 0.912881E-013
 0.912887E-013
 0.912891E-013
 0.912894E-013
 0.912895E-013
 0.912895E-013
 0.912894E-013
 0.912891E-013
 0.912887E-013
 0.912881E-013
 0.912874E-013
 0.912865E-013
 0.912855E-013
 0.912843E-013
 0.912831E-013
 0.912817E-013
 0.912801E-013
 0.912784E-013
 0.912766E-013
 0.912747E-013
 0.912727E-013
 0.912705E-013
 0.912683E-013
 0.912659E-013
 0.912634E-013
 0.912609E-013
 0.912582E-013
 0.912554E-013
 0.912526E-013
 0.912496E-013
 0.912466E-013
 0.912435E-013
 0.912404E-013
 0.912371E-013
 0.912338E-013
 0.912305E-013
 0.912271E-013
 0.912236E-013
 0.912201E-013
 0.912165E-013
 0.912129E-013
 0.912092E-013
 0.912055E-013
 0.912017E-013
 0.911980E-013
 0.911942E-013
 0.911903E-013
 0.911864E-013
 0.911825E-013
 0.911786E-013
 0.911747E-013
 0.911707E-013
 0.911667E-013
 0.911627E-013
 0.911587E-013
 0.911546E-013
 0.911506E-013
 0.911465E-013
 0.911424E-013
 0.911383E-013
 0.911343E-013
 0.911296E-013
 0.911277E-013
 0.911147E-013
 0.911413E-013
 0.910447E-013
 0.912772E-013
 0.907666E-013
 0.916482E-013
 0.917189E-013
 0.906986E-013
 0.912852E-013
 0.910075E-013
 0.911147E-013
 0.910772E-013
 0.910864E-013
 0.910825E-013
 0.910819E-013
 0.910805E-013
 0.910793E-013
 0.910780E-013
 0.910768E-013
 0.910756E-013
 0.910743E-013
 0.910731E-013
 0.910719E-013
 0.910707E-013
 0.910695E-013
 0.910683E-013
 0.910671E-013
 0.910660E-013
 0.910648E-013
 0.910636E-013
 0.910625E-013
 0.910613E-013
 0.910602E-013
 0.910591E-013
 0.910580E-013
 0.910569E-013
 0.910558E-013
 0.910547E-013
 0.910537E-013
 0.910527E-013
 0.910516E-013
 0.910506E-013
 0.910497E-013
 0.910487E-013
 0.910478E-013
 0.910469E-013
 0.910460E-013
 0.910451E-013
 0.910443E-013
 0.910435E-013
 0.910427E-013
 0.910420E-013
 0.910413E-013
 0.910406E-013
 0.910399E-013
 0.910393E-013
 0.910387E-013
 0.910382E-013
 0.910377E-013
 0.910372E-013
 0.910368E-013
 0.910364E-013
 0.910361E-013
 0.910358E-013
 0.910355E-013
 0.910353E-013
 0.910351E-013
 0.910350E-013
 0.910349E-013
 0.910349E-013
 0.910349E-013
 0.910349E-013
 0.910350E-013
 0.910351E-013
 0.910353E-013
 0.910355E-013
 0.910358E-013
 0.910361E-013
 0.910364E-013
 0.910368E-013
 0.910372E-013
 0.910377E-013
 0.910382E-013
 0.910387E-013
 0.910393E-013
 0.910399E-013
 0.910406E-013
 0.910413E-013
 0.910420E-013
 0.910427E-013
 0.910435E-013
 0.910443E-013
 0.910451E-013
 0.910460E-013
 0.910469E-013
 0.910478E-013
 0.910487E-013
 0.910497E-013
 0.910506E-013
 0.910516E-013
 0.910527E-013
 0.910537E-013
 0.910547E-013
 0.910558E-013
 0.910569E-013
 0.910580E-013
 0.910591E-013
 0.910602E-013
 0.910613E-013
 0.910625E-013
 0.910636E-013
 0.910648E-013
 0.910660E-013
 0.910671E-013
 0.910683E-013
 0.910695E-013
 0.910707E-013
 0.910719E-013
 0.910731E-013
 0.910743E-013
 0.910756E-013
 0.910768E-013
 0.910780E-013
 0.910793E-013
 0.910805E-013
 0.910819E-013
 0.910825E-013
 0.910864E-013
 0.910772E-013
 0.911147E-013
 0.910075E-013
 0.912852E-013
 0.906986E-013
 0.917189E-013
 0.918031E-013
 0.906487E-013
 0.913190E-013
 0.910030E-013
 0.911277E-013
 0.910864E-013
 0.910988E-013
 0.910961E-013
 0.910971E-013
 0.910973E-013
 0.910977E-013
 0.910980E-013
 0.910983E-013
 0.910986E-013
 0.910990E-013
 0.910993E-013
 0.910996E-013
 0.910999E-013
 0.911002E-013
 0.911006E-013
 0.911009E-013
 0.911012E-013
 0.911015E-013
 0.911018E-013
 0.911021E-013
 0.911024E-013
 0.911027E-013
 0.911030E-013
 0.911033E-013
 0.911036E-013
 0.911039E-013
 0.911042E-013
 0.911044E-013
 0.911047E-013
 0.911050E-013
 0.911053E-013
 0.911055E-013
 0.911058E-013
 0.911060E-013
 0.911063E-013
 0.911065E-013
 0.911067E-013
 0.911070E-013
 0.911072E-013
 0.911074E-013
 0.911076E-013
 0.911078E-013
 0.911080E-013
 0.911081E-013
 0.911083E-013
 0.911085E-013
 0.911086E-013
 0.911087E-013
 0.911089E-013
 0.911090E-013
 0.911091E-013
 0.911092E-013
 0.911093E-013
 0.911093E-013
 0.911094E-013
 0.911094E-013
 0.911095E-013
 0.911095E-013
 0.911095E-013
 0.911095E-013
 0.911095E-013
 0.911095E-013
 0.911094E-013
 0.911094E-013
 0.911093E-013
 0.911093E-013
 0.911092E-013
 0.911091E-013
 0.911090E-013
 0.911089E-013
 0.911087E-013
 0.911086E-013
 0.911085E-013
 0.911083E-013
 0.911081E-013
 0.911080E-013
 0.911078E-013
 0.911076E-013
 0.911074E-013
 0.911072E-013
 0.911070E-013
 0.911067E-013
 0.911065E-013
 0.911063E-013
 0.911060E-013
 0.911058E-013
 0.911055E-013
 0.911052E-013
 0.911050E-013
 0.911047E-013
 0.911044E-013
 0.911042E-013
 0.911039E-013
 0.911036E-013
 0.911033E-013
 0.911030E-013
 0.911027E-013
 0.911024E-013
 0.911021E-013
 0.911018E-013
 0.911015E-013
 0.911012E-013
 0.911009E-013
 0.911006E-013
 0.911002E-013
 0.910999E-013
 0.910996E-013
 0.910993E-013
 0.910990E-013
 0.910986E-013
 0.910983E-013
 0.910980E-013
 0.910977E-013
 0.910973E-013
 0.910971E-013
 0.910961E-013
 0.910988E-013
 0.910864E-013
 0.911277E-013
 0.910030E-013
 0.913189E-013
 0.906487E-013
 0.918031E-013
 0.918834E-013
 0.905939E-013
 0.913454E-013
 0.909894E-013
 0.911296E-013
 0.910825E-013
 0.910961E-013
 0.910925E-013
 0.910932E-013
 0.910930E-013
 0.910929E-013
 0.910929E-013
 0.910928E-013
 0.910927E-013
 0.910926E-013
 0.910926E-013
 0.910925E-013
 0.910924E-013
 0.910923E-013
 0.910923E-013
 0.910922E-013
 0.910921E-013
 0.910921E-013
 0.910920E-013
 0.910919E-013
 0.910919E-013
 0.910918E-013
 0.910917E-013
 0.910916E-013
 0.910916E-013
 0.910915E-013
 0.910915E-013
 0.910914E-013
 0.910913E-013
 0.910913E-013
 0.910912E-013
 0.910912E-013
 0.910911E-013
 0.910911E-013
 0.910910E-013
 0.910909E-013
 0.910909E-013
 0.910909E-013
 0.910908E-013
 0.910908E-013
 0.910907E-013
 0.910907E-013
 0.910906E-013
 0.910906E-013
 0.910906E-013
 0.910905E-013
 0.910905E-013
 0.910905E-013
 0.910905E-013
 0.910904E-013
 0.910904E-013
 0.910904E-013
 0.910904E-013
 0.910904E-013
 0.910904E-013
 0.910904E-013
 0.910903E-013
 0.910903E-013
 0.910903E-013
 0.910903E-013
 0.910903E-013
 0.910903E-013
 0.910904E-013
 0.910904E-013
 0.910904E-013
 0.910904E-013
 0.910904E-013
 0.910904E-013
 0.910904E-013
 0.910905E-013
 0.910905E-013
 0.910905E-013
 0.910905E-013
 0.910906E-013
 0.910906E-013
 0.910906E-013
 0.910907E-013
 0.910907E-013
 0.910908E-013
 0.910908E-013
 0.910909E-013
 0.910909E-013
 0.910909E-013
 0.910910E-013
 0.910911E-013
 0.910911E-013
 0.910912E-013
 0.910912E-013
 0.910913E-013
 0.910913E-013
 0.910914E-013
 0.910915E-013
 0.910915E-013
 0.910916E-013
 0.910917E-013
 0.910917E-013
 0.910918E-013
 0.910919E-013
 0.910919E-013
 0.910920E-013
 0.910921E-013
 0.910921E-013
 0.910922E-013
 0.910923E-013
 0.910923E-013
 0.910924E-013
 0.910925E-013
 0.910926E-013
 0.910926E-013
 0.910927E-013
 0.910928E-013
 0.910929E-013
 0.910930E-013
 0.910930E-013
 0.910932E-013
 0.910925E-013
 0.910961E-013
 0.910825E-013
 0.911296E-013
 0.909894E-013
 0.913454E-013
 0.905939E-013
 0.918834E-013
 0.919643E-013
 0.905405E-013
 0.913736E-013
 0.909781E-013
 0.911343E-013
 0.910819E-013
 0.910971E-013
 0.910932E-013
 0.910941E-013
 0.910940E-013
 0.910940E-013
 0.910940E-013
 0.910941E-013
 0.910941E-013
 0.910941E-013
 0.910941E-013
 0.910941E-013
 0.910941E-013
 0.910942E-013
 0.910942E-013
 0.910942E-013
 0.910942E-013
 0.910942E-013
 0.910942E-013
 0.910943E-013
 0.910943E-013
 0.910943E-013
 0.910943E-013
 0.910943E-013
 0.910943E-013
 0.910944E-013
 0.910944E-013
 0.910944E-013
 0.910944E-013
 0.910944E-013
 0.910944E-013
 0.910945E-013
 0.910945E-013
 0.910945E-013
 0.910945E-013
 0.910945E-013
 0.910945E-013
 0.910946E-013
 0.910946E-013
 0.910946E-013
 0.910946E-013
 0.910946E-013
 0.910946E-013
 0.910946E-013
 0.910947E-013
 0.910947E-013
 0.910947E-013
 0.910947E-013
 0.910947E-013
 0.910947E-013
 0.910947E-013
 0.910947E-013
 0.910947E-013
 0.910948E-013
 0.910948E-013
 0.910948E-013
 0.910948E-013
 0.910948E-013
 0.910948E-013
 0.910948E-013
 0.910948E-013
 0.910948E-013
 0.910948E-013
 0.910948E-013
 0.910948E-013
 0.910947E-013
 0.910947E-013
 0.910947E-013
 0.910947E-013
 0.910947E-013
 0.910947E-013
 0.910947E-013
 0.910947E-013
 0.910947E-013
 0.910946E-013
 0.910946E-013
 0.910946E-013
 0.910946E-013
 0.910946E-013
 0.910946E-013
 0.910946E-013
 0.910945E-013
 0.910945E-013
 0.910945E-013
 0.910945E-013
 0.910945E-013
 0.910945E-013
 0.910944E-013
 0.910944E-013
 0.910944E-013
 0.910944E-013
 0.910944E-013
 0.910944E-013
 0.910943E-013
 0.910943E-013
 0.910943E-013
 0.910943E-013
 0.910943E-013
 0.910943E-013
 0.910942E-013
 0.910942E-013
 0.910942E-013
 0.910942E-013
 0.910942E-013
 0.910942E-013
 0.910941E-013
 0.910941E-013
 0.910941E-013
 0.910941E-013
 0.910941E-013
 0.910941E-013
 0.910940E-013
 0.910940E-013
 0.910940E-013
 0.910941E-013
 0.910932E-013
 0.910971E-013
 0.910819E-013
 0.911343E-013
 0.909781E-013
 0.913735E-013
 0.905405E-013
 0.919643E-013
 0.920448E-013
 0.904870E-013
 0.914012E-013
 0.909664E-013
 0.911383E-013
 0.910805E-013
 0.910973E-013
 0.910930E-013
 0.910940E-013
 0.910938E-013
 0.910938E-013
 0.910938E-013
 0.910938E-013
 0.910938E-013
 0.910938E-013
 0.910938E-013
 0.910938E-013
 0.910938E-013
 0.910938E-013
 0.910938E-013
 0.910938E-013
 0.910938E-013
 0.910938E-013
 0.910938E-013
 0.910938E-013
 0.910938E-013
 0.910938E-013
 0.910938E-013
 0.910938E-013
 0.910938E-013
 0.910938E-013
 0.910938E-013
 0.910938E-013
 0.910938E-013
 0.910938E-013
 0.910938E-013
 0.910938E-013
 0.910938E-013
 0.910938E-013
 0.910938E-013
 0.910938E-013
 0.910938E-013
 0.910938E-013
 0.910938E-013
 0.910938E-013
 0.910938E-013
 0.910938E-013
 0.910938E-013
 0.910938E-013
 0.910938E-013
 0.910939E-013
 0.910939E-013
 0.910939E-013
 0.910939E-013
 0.910939E-013
 0.910939E-013
 0.910939E-013
 0.910939E-013
 0.910939E-013
 0.910939E-013
 0.910939E-013
 0.910939E-013
 0.910939E-013
 0.910939E-013
 0.910939E-013
 0.910939E-013
 0.910939E-013
 0.910939E-013
 0.910939E-013
 0.910939E-013
 0.910939E-013
 0.910939E-013
 0.910939E-013
 0.910939E-013
 0.910939E-013
 0.910939E-013
 0.910939E-013
 0.910939E-013
 0.910938E-013
 0.910938E-013
 0.910938E-013
 0.910938E-013
 0.910938E-013
 0.910938E-013
 0.910938E-013
 0.910938E-013
 0.910938E-013
 0.910938E-013
 0.910938E-013
 0.910938E-013
 0.910938E-013
 0.910938E-013
 0.910938E-013
 0.910938E-013
 0.910938E-013
 0.910938E-013
 0.910938E-013
 0.910938E-013
 0.910938E-013
 0.910938E-013
 0.910938E-013
 0.910938E-013
 0.910938E-013
 0.910938E-013
 0.910938E-013
 0.910938E-013
 0.910938E-013
 0.910938E-013
 0.910938E-013
 0.910938E-013
 0.910938E-013
 0.910938E-013
 0.910938E-013
 0.910938E-013
 0.910938E-013
 0.910938E-013
 0.910938E-013
 0.910938E-013
 0.910938E-013
 0.910940E-013
 0.910930E-013
 0.910973E-013
 0.910805E-013
 0.911383E-013
 0.909664E-013
 0.914012E-013
 0.904870E-013
 0.920448E-013
 0.921251E-013
 0.904337E-013
 0.914289E-013
 0.909547E-013
 0.911424E-013
 0.910793E-013
 0.910977E-013
 0.910929E-013
 0.910940E-013
 0.910938E-013
 0.910938E-013
 0.910938E-013
 0.910938E-013
 0.910938E-013
 0.910938E-013
 0.910938E-013
 0.910938E-013
 0.910939E-013
 0.910939E-013
 0.910939E-013
 0.910939E-013
 0.910939E-013
 0.910939E-013
 0.910939E-013
 0.910939E-013
 0.910939E-013
 0.910939E-013
 0.910939E-013
 0.910939E-013
 0.910939E-013
 0.910939E-013
 0.910939E-013
 0.910939E-013
 0.910939E-013
 0.910939E-013
 0.910939E-013
 0.910939E-013
 0.910939E-013
 0.910939E-013
 0.910939E-013
 0.910940E-013
 0.910940E-013
 0.910940E-013
 0.910940E-013
 0.910940E-013
 0.910940E-013
 0.910940E-013
 0.910940E-013
 0.910940E-013