# vtk DataFile Version 3.0
Solution data
ASCII
DATASET STRUCTURED_GRID
DIMENSIONS 128 128 1
POINTS 16384  double
      0.000004      0.000004      0.000000
      0.000012      0.000004      0.000000
      0.000020      0.000004      0.000000
      0.000027      0.000004      0.000000
      0.000035      0.000004      0.000000
      0.000043      0.000004      0.000000
      0.000051      0.000004      0.000000
      0.000059      0.000004      0.000000
      0.000066      0.000004      0.000000
      0.000074      0.000004      0.000000
      0.000082      0.000004      0.000000
      0.000090      0.000004      0.000000
      0.000098      0.000004      0.000000
      0.000105      0.000004      0.000000
      0.000113      0.000004      0.000000
      0.000121      0.000004      0.000000
      0.000129      0.000004      0.000000
      0.000137      0.000004      0.000000
      0.000145      0.000004      0.000000
      0.000152      0.000004      0.000000
      0.000160      0.000004      0.000000
      0.000168      0.000004      0.000000
      0.000176      0.000004      0.000000
      0.000184      0.000004      0.000000
      0.000191      0.000004      0.000000
      0.000199      0.000004      0.000000
      0.000207      0.000004      0.000000
      0.000215      0.000004      0.000000
      0.000223      0.000004      0.000000
      0.000230      0.000004      0.000000
      0.000238      0.000004      0.000000
      0.000246      0.000004      0.000000
      0.000254      0.000004      0.000000
      0.000262      0.000004      0.000000
      0.000270      0.000004      0.000000
      0.000277      0.000004      0.000000
      0.000285      0.000004      0.000000
      0.000293      0.000004      0.000000
      0.000301      0.000004      0.000000
      0.000309      0.000004      0.000000
      0.000316      0.000004      0.000000
      0.000324      0.000004      0.000000
      0.000332      0.000004      0.000000
      0.000340      0.000004      0.000000
      0.000348      0.000004      0.000000
      0.000355      0.000004      0.000000
      0.000363      0.000004      0.000000
      0.000371      0.000004      0.000000
      0.000379      0.000004      0.000000
      0.000387      0.000004      0.000000
      0.000395      0.000004      0.000000
      0.000402      0.000004      0.000000
      0.000410      0.000004      0.000000
      0.000418      0.000004      0.000000
      0.000426      0.000004      0.000000
      0.000434      0.000004      0.000000
      0.000441      0.000004      0.000000
      0.000449      0.000004      0.000000
      0.000457      0.000004      0.000000
      0.000465      0.000004      0.000000
      0.000473      0.000004      0.000000
      0.000480      0.000004      0.000000
      0.000488      0.000004      0.000000
      0.000496      0.000004      0.000000
      0.000504      0.000004      0.000000
      0.000512      0.000004      0.000000
      0.000520      0.000004      0.000000
      0.000527      0.000004      0.000000
      0.000535      0.000004      0.000000
      0.000543      0.000004      0.000000
      0.000551      0.000004      0.000000
      0.000559      0.000004      0.000000
      0.000566      0.000004      0.000000
      0.000574      0.000004      0.000000
      0.000582      0.000004      0.000000
      0.000590      0.000004      0.000000
      0.000598      0.000004      0.000000
      0.000605      0.000004      0.000000
      0.000613      0.000004      0.000000
      0.000621      0.000004      0.000000
      0.000629      0.000004      0.000000
      0.000637      0.000004      0.000000
      0.000645      0.000004      0.000000
      0.000652      0.000004      0.000000
      0.000660      0.000004      0.000000
      0.000668      0.000004      0.000000
      0.000676      0.000004      0.000000
      0.000684      0.000004      0.000000
      0.000691      0.000004      0.000000
      0.000699      0.000004      0.000000
      0.000707      0.000004      0.000000
      0.000715      0.000004      0.000000
      0.000723      0.000004      0.000000
      0.000730      0.000004      0.000000
      0.000738      0.000004      0.000000
      0.000746      0.000004      0.000000
      0.000754      0.000004      0.000000
      0.000762      0.000004      0.000000
      0.000770      0.000004      0.000000
      0.000777      0.000004      0.000000
      0.000785      0.000004      0.000000
      0.000793      0.000004      0.000000
      0.000801      0.000004      0.000000
      0.000809      0.000004      0.000000
      0.000816      0.000004      0.000000
      0.000824      0.000004      0.000000
      0.000832      0.000004      0.000000
      0.000840      0.000004      0.000000
      0.000848      0.000004      0.000000
      0.000855      0.000004      0.000000
      0.000863      0.000004      0.000000
      0.000871      0.000004      0.000000
      0.000879      0.000004      0.000000
      0.000887      0.000004      0.000000
      0.000895      0.000004      0.000000
      0.000902      0.000004      0.000000
      0.000910      0.000004      0.000000
      0.000918      0.000004      0.000000
      0.000926      0.000004      0.000000
      0.000934      0.000004      0.000000
      0.000941      0.000004      0.000000
      0.000949      0.000004      0.000000
      0.000957      0.000004      0.000000
      0.000965      0.000004      0.000000
      0.000973      0.000004      0.000000
      0.000980      0.000004      0.000000
      0.000988      0.000004      0.000000
      0.000996      0.000004      0.000000
      0.000004      0.000012      0.000000
      0.000012      0.000012      0.000000
      0.000020      0.000012      0.000000
      0.000027      0.000012      0.000000
      0.000035      0.000012      0.000000
      0.000043      0.000012      0.000000
      0.000051      0.000012      0.000000
      0.000059      0.000012      0.000000
      0.000066      0.000012      0.000000
      0.000074      0.000012      0.000000
      0.000082      0.000012      0.000000
      0.000090      0.000012      0.000000
      0.000098      0.000012      0.000000
      0.000105      0.000012      0.000000
      0.000113      0.000012      0.000000
      0.000121      0.000012      0.000000
      0.000129      0.000012      0.000000
      0.000137      0.000012      0.000000
      0.000145      0.000012      0.000000
      0.000152      0.000012      0.000000
      0.000160      0.000012      0.000000
      0.000168      0.000012      0.000000
      0.000176      0.000012      0.000000
      0.000184      0.000012      0.000000
      0.000191      0.000012      0.000000
      0.000199      0.000012      0.000000
      0.000207      0.000012      0.000000
      0.000215      0.000012      0.000000
      0.000223      0.000012      0.000000
      0.000230      0.000012      0.000000
      0.000238      0.000012      0.000000
      0.000246      0.000012      0.000000
      0.000254      0.000012      0.000000
      0.000262      0.000012      0.000000
      0.000270      0.000012      0.000000
      0.000277      0.000012      0.000000
      0.000285      0.000012      0.000000
      0.000293      0.000012      0.000000
      0.000301      0.000012      0.000000
      0.000309      0.000012      0.000000
      0.000316      0.000012      0.000000
      0.000324      0.000012      0.000000
      0.000332      0.000012      0.000000
      0.000340      0.000012      0.000000
      0.000348      0.000012      0.000000
      0.000355      0.000012      0.000000
      0.000363      0.000012      0.000000
      0.000371      0.000012      0.000000
      0.000379      0.000012      0.000000
      0.000387      0.000012      0.000000
      0.000395      0.000012      0.000000
      0.000402      0.000012      0.000000
      0.000410      0.000012      0.000000
      0.000418      0.000012      0.000000
      0.000426      0.000012      0.000000
      0.000434      0.000012      0.000000
      0.000441      0.000012      0.000000
      0.000449      0.000012      0.000000
      0.000457      0.000012      0.000000
      0.000465      0.000012      0.000000
      0.000473      0.000012      0.000000
      0.000480      0.000012      0.000000
      0.000488      0.000012      0.000000
      0.000496      0.000012      0.000000
      0.000504      0.000012      0.000000
      0.000512      0.000012      0.000000
      0.000520      0.000012      0.000000
      0.000527      0.000012      0.000000
      0.000535      0.000012      0.000000
      0.000543      0.000012      0.000000
      0.000551      0.000012      0.000000
      0.000559      0.000012      0.000000
      0.000566      0.000012      0.000000
      0.000574      0.000012      0.000000
      0.000582      0.000012      0.000000
      0.000590      0.000012      0.000000
      0.000598      0.000012      0.000000
      0.000605      0.000012      0.000000
      0.000613      0.000012      0.000000
      0.000621      0.000012      0.000000
      0.000629      0.000012      0.000000
      0.000637      0.000012      0.000000
      0.000645      0.000012      0.000000
      0.000652      0.000012      0.000000
      0.000660      0.000012      0.000000
      0.000668      0.000012      0.000000
      0.000676      0.000012      0.000000
      0.000684      0.000012      0.000000
      0.000691      0.000012      0.000000
      0.000699      0.000012      0.000000
      0.000707      0.000012      0.000000
      0.000715      0.000012      0.000000
      0.000723      0.000012      0.000000
      0.000730      0.000012      0.000000
      0.000738      0.000012      0.000000
      0.000746      0.000012      0.000000
      0.000754      0.000012      0.000000
      0.000762      0.000012      0.000000
      0.000770      0.000012      0.000000
      0.000777      0.000012      0.000000
      0.000785      0.000012      0.000000
[...]
POINT_DATA 16384
SCALARS rhoe double
LOOKUP_TABLE default
 0.911154E-013
 0.911150E-013
 0.911256E-013
 0.911362E-013
 0.911467E-013
 0.911572E-013
 0.911677E-013
 0.911783E-013
 0.911888E-013
 0.911993E-013
 0.912098E-013
 0.912203E-013
 0.912308E-013
 0.912413E-013
 0.912518E-013
 0.912623E-013
 0.912728E-013
 0.912832E-013
 0.912937E-013
 0.913041E-013
 0.913145E-013
 0.913249E-013
 0.913352E-013
 0.913455E-013
 0.913557E-013
 0.913659E-013
 0.913760E-013
 0.913861E-013
 0.913961E-013
 0.914060E-013
 0.914158E-013
 0.914256E-013
 0.914352E-013
 0.914447E-013
 0.914541E-013
 0.914633E-013
 0.914724E-013
 0.914813E-013
 0.914900E-013
 0.914986E-013
 0.915070E-013
 0.915151E-013
 0.915230E-013
 0.915307E-013
 0.915382E-013
 0.915453E-013
 0.915522E-013
 0.915588E-013
 0.915651E-013
 0.915711E-013
 0.915767E-013
 0.915820E-013
 0.915869E-013
 0.915915E-013
 0.915957E-013
 0.915995E-013
 0.916029E-013
 0.916059E-013
 0.916085E-013
 0.916106E-013
 0.916124E-013
 0.916137E-013
 0.916146E-013
 0.916150E-013
 0.916150E-013
 0.916146E-013
 0.916138E-013
 0.916125E-013
 0.916108E-013
 0.916086E-013
 0.916061E-013
 0.916031E-013
 0.915997E-013
 0.915959E-013
 0.915918E-013
 0.915872E-013
 0.915823E-013
 0.915770E-013
 0.915714E-013
 0.915655E-013
 0.915592E-013
 0.915526E-013
 0.915458E-013
 0.915386E-013
 0.915312E-013
 0.915236E-013
 0.915156E-013
 0.915075E-013
 0.914992E-013
 0.914906E-013
 0.914819E-013
 0.914730E-013
 0.914639E-013
 0.914547E-013
 0.914453E-013
 0.914358E-013
 0.914262E-013
 0.914165E-013
 0.914066E-013
 0.913967E-013
 0.913867E-013
 0.913767E-013
 0.913665E-013
 0.913563E-013
 0.913461E-013
 0.913358E-013
 0.913255E-013
 0.913151E-013
 0.913047E-013
 0.912942E-013
 0.912838E-013
 0.912733E-013
 0.912628E-013
 0.912523E-013
 0.912418E-013
 0.912313E-013
 0.912208E-013
 0.912102E-013
 0.911997E-013
 0.911891E-013
 0.911786E-013
 0.911680E-013
 0.911575E-013
 0.911469E-013
 0.911363E-013
 0.911258E-013
 0.911151E-013
 0.911155E-013
 0.911150E-013
 0.910934E-013
 0.910935E-013
 0.910934E-013
 0.910933E-013
 0.910932E-013
 0.910931E-013
 0.910929E-013
 0.910928E-013
 0.910927E-013
 0.910926E-013
 0.910925E-013
 0.910924E-013
 0.910923E-013
 0.910922E-013
 0.910921E-013
 0.910920E-013
 0.910919E-013
 0.910918E-013
 0.910917E-013
 0.910916E-013
 0.910916E-013
 0.910915E-013
 0.910914E-013
 0.910914E-013
 0.910913E-013
 0.910912E-013
 0.910912E-013
 0.910911E-013
 0.910911E-013
 0.910911E-013
 0.910910E-013
 0.910910E-013
 0.910910E-013
 0.910910E-013
 0.910910E-013
 0.910910E-013
 0.910910E-013
 0.910911E-013
 0.910911E-013
 0.910911E-013
 0.910912E-013
 0.910912E-013
 0.910913E-013
 0.910913E-013
 0.910914E-013
 0.910915E-013
 0.910915E-013
 0.910916E-013
 0.910917E-013
 0.910918E-013
 0.910918E-013
 0.910919E-013
 0.910920E-013
 0.910920E-013
 0.910921E-013
 0.910922E-013
 0.910922E-013
 0.910923E-013
 0.910923E-013
 0.910923E-013
 0.910924E-013
 0.910924E-013
 0.910924E-013
 0.910924E-013
 0.910924E-013
 0.910924E-013
 0.910923E-013
 0.910923E-013
 0.910923E-013
 0.910922E-013
 0.910922E-013
 0.910921E-013
 0.910920E-013
 0.910920E-013
 0.910919E-013
 0.910918E-013
 0.910918E-013
 0.910917E-013
 0.910916E-013
 0.910915E-013
 0.910915E-013
 0.910914E-013
 0.910913E-013
 0.910913E-013
 0.910912E-013
 0.910912E-013
 0.910911E-013
 0.910911E-013
 0.910910E-013
 0.910910E-013
 0.910910E-013
 0.910910E-013
 0.910910E-013
 0.910910E-013
 0.910910E-013
 0.910910E-013
 0.910910E-013
 0.910911E-013
 0.910911E-013
 0.910911E-013
 0.910912E-013
 0.910913E-013
 0.910913E-013
 0.910914E-013
 0.910915E-013
 0.910915E-013
 0.910916E-013
 0.910917E-013
 0.910918E-013
 0.910919E-013
 0.910920E-013
 0.910921E-013
 0.910922E-013
 0.910923E-013
 0.910924E-013
 0.910925E-013
 0.910926E-013
 0.910927E-013
 0.910928E-013
 0.910929E-013
 0.910930E-013
 0.910931E-013
 0.910933E-013
 0.910934E-013
 0.910935E-013
 0.910934E-013
 0.911151E-013
 0.911256E-013
 0.910935E-013
 0.910939E-013
 0.910939E-013
 0.910939E-013
 0.910939E-013
 0.910939E-013
 0.910939E-013
 0.910939E-013
 0.910939E-013
 0.910939E-013
 0.910940E-013
 0.910940E-013
 0.910940E-013
 0.910940E-013
 0.910940E-013
 0.910941E-013
 0.910941E-013
 0.910941E-013
 0.910942E-013
 0.910942E-013
 0.910942E-013
 0.910943E-013
 0.910943E-013
 0.910944E-013
 0.910945E-013
 0.910945E-013
 0.910946E-013
 0.910947E-013
 0.910948E-013
 0.910949E-013
 0.910950E-013
 0.910951E-013
 0.910952E-013
 0.910953E-013
 0.910954E-013
 0.910956E-013
 0.910957E-013
 0.910959E-013
 0.910960E-013
 0.910962E-013
 0.910964E-013
 0.910965E-013
 0.910967E-013
 0.910969E-013
 0.910970E-013
 0.910972E-013
 0.910974E-013
 0.910976E-013
 0.910977E-013
 0.910979E-013
 0.910981E-013
 0.910982E-013
 0.910984E-013
 0.910985E-013
 0.910986E-013
 0.910987E-013
 0.910988E-013
 0.910989E-013
 0.910990E-013
 0.910991E-013
 0.910991E-013
 0.910991E-013
 0.910992E-013
 0.910992E-013
 0.910991E-013
 0.910991E-013
 0.910991E-013
 0.910990E-013
 0.910989E-013
 0.910988E-013
 0.910987E-013
 0.910986E-013
 0.910985E-013
 0.910984E-013
 0.910982E-013
 0.910981E-013
 0.910979E-013
 0.910977E-013
 0.910976E-013
 0.910974E-013
 0.910972E-013
 0.910970E-013
 0.910969E-013
 0.910967E-013
 0.910965E-013
 0.910963E-013
 0.910962E-013
 0.910960E-013
 0.910959E-013
 0.910957E-013
 0.910956E-013
 0.910954E-013
 0.910953E-013
 0.910952E-013
 0.910951E-013
 0.910950E-013
 0.910949E-013
 0.910948E-013
 0.910947E-013
 0.910946E-013
 0.910945E-013
 0.910944E-013
 0.910944E-013
 0.910943E-013
 0.910943E-013
 0.910942E-013
 0.910942E-013
 0.910941E-013
 0.910941E-013
 0.910941E-013
 0.910940E-013
 0.910940E-013
 0.910940E-013
 0.910940E-013
 0.910940E-013
 0.910939E-013
 0.910939E-013
 0.910939E-013
 0.910939E-013
 0.910939E-013
 0.910939E-013
 0.910939E-013
 0.910939E-013
 0.910939E-013
 0.910939E-013
 0.910935E-013
 0.911258E-013
 0.911362E-013
 0.910934E-013
 0.910939E-013
 0.910939E-013
 0.910939E-013
 0.910939E-013
 0.910939E-013
 0.910939E-013
 0.910939E-013
 0.910939E-013
 0.910940E-013
 0.910940E-013
 0.910940E-013
 0.910940E-013
 0.910940E-013
 0.910941E-013
 0.910941E-013
 0.910941E-013
 0.910942E-013
 0.910942E-013
 0.910942E-013
 0.910943E-013
 0.910944E-013
 0.910944E-013
 0.910945E-013
 0.910946E-013
 0.910946E-013
 0.910947E-013
 0.910948E-013
 0.910949E-013
 0.910950E-013
 0.910952E-013
 0.910953E-013
 0.910954E-013
 0.910956E-013
 0.910957E-013
 0.910959E-013
 0.910961E-013
 0.910962E-013
 0.910964E-013
 0.910966E-013
 0.910968E-013
 0.910970E-013
 0.910972E-013
 0.910974E-013
 0.910976E-013
 0.910979E-013
 0.910981E-013
 0.910983E-013
 0.910985E-013
 0.910987E-013
 0.910989E-013
 0.910991E-013
 0.910992E-013
 0.910994E-013
 0.910995E-013
 0.910997E-013
 0.910998E-013
 0.910999E-013
 0.911000E-013
 0.911001E-013
 0.911001E-013
 0.911002E-013
 0.911002E-013
 0.911002E-013
 0.911002E-013
 0.911001E-013
 0.911001E-013
 0.911000E-013
 0.910999E-013
 0.910998E-013
 0.910997E-013
 0.910995E-013
 0.910994E-013
 0.910992E-013
 0.910990E-013
 0.910989E-013
 0.910987E-013
 0.910985E-013
 0.910983E-013
 0.910981E-013
 0.910978E-013
 0.910976E-013
 0.910974E-013
 0.910972E-013
 0.910970E-013
 0.910968E-013
 0.910966E-013
 0.910964E-013
 0.910962E-013
 0.910960E-013
 0.910959E-013
 0.910957E-013
 0.910956E-013
 0.910954E-013
 0.910953E-013
 0.910951E-013
 0.910950E-013
 0.910949E-013
 0.910948E-013
 0.910947E-013
 0.910946E-013
 0.910945E-013
 0.910945E-013
 0.910944E-013
 0.910943E-013
 0.910943E-013
 0.910942E-013
 0.910942E-013
 0.910941E-013
 0.910941E-013
 0.910941E-013
 0.910940E-013
 0.910940E-013
 0.910940E-013
 0.910940E-013
 0.910939E-013
 0.910939E-013
 0.910939E-013
 0.910939E-013
 0.910939E-013
 0.910939E-013
 0.910939E-013
 0.910939E-013
 0.910939E-013
 0.910939E-013
 0.910934E-013
 0.911363E-013
 0.911467E-013
 0.910933E-013
 0.910939E-013
 0.910939E-013
 0.910939E-013
 0.910939E-013
 0.910939E-013
 0.910939E-013
 0.910939E-013
 0.910940E-013
 0.910940E-013
 0.910940E-013
 0.910940E-013
 0.910940E-013
 0.910941E-013
 0.910941E-013
 0.910941E-013
 0.910942E-013
 0.910942E-013
 0.910943E-013
 0.910943E-013
 0.910944E-013
 0.910945E-013
 0.910945E-013
 0.910946E-013
 0.910947E-013
 0.910948E-013
 0.910949E-013
 0.910950E-013
 0.910951E-013
 0.910953E-013
 0.910954E-013
 0.910956E-013
 0.910957E-013
 0.910959E-013
 0.910961E-013
 0.910963E-013
 0.910965E-013
 0.910967E-013
 0.910969E-013
 0.910972E-013
 0.910974E-013
 0.910977E-013
 0.910979E-013
 0.910981E-013
 0.910984E-013
 0.910987E-013
 0.910989E-013
 0.910992E-013
 0.910994E-013
 0.910996E-013
 0.910999E-013
 0.911001E-013
 0.911003E-013
 0.911005E-013
 0.911007E-013
 0.911008E-013
 0.911010E-013
 0.911011E-013
 0.911012E-013
 0.911013E-013
 0.911014E-013
 0.911014E-013
 0.911015E-013
 0.911015E-013
 0.911014E-013
 0.911014E-013
 0.911013E-013
 0.911012E-013
 0.911011E-013
 0.911010E-013
 0.911008E-013
 0.911007E-013
 0.911005E-013
 0.911003E-013
 0.911001E-013
 0.910999E-013
 0.910996E-013
 0.910994E-013
 0.910991E-013
 0.910989E-013
 0.910986E-013
 0.910984E-013
 0.910981E-013
 0.910979E-013
 0.910976E-013
 0.910974E-013
 0.910972E-013
 0.910969E-013
 0.910967E-013
 0.910965E-013
 0.910963E-013
 0.910961E-013
 0.910959E-013
 0.910957E-013
 0.910956E-013
 0.910954E-013
 0.910953E-013
 0.910951E-013
 0.910950E-013
 0.910949E-013
 0.910948E-013
 0.910947E-013
 0.910946E-013
 0.910945E-013
 0.910944E-013
 0.910944E-013
 0.910943E-013
 0.910942E-013
 0.910942E-013
 0.910941E-013
 0.910941E-013
 0.910941E-013
 0.910940E-013
 0.910940E-013
 0.910940E-013
 0.910940E-013
 0.910939E-013
 0.910939E-013
 0.910939E-013
 0.910939E-013
 0.910939E-013
 0.910939E-013
 0.910939E-013
 0.910939E-013
 0.910939E-013
 0.910933E-013
 0.911469E-013
 0.911572E-013
 0.910932E-013
 0.910939E-013
 0.910939E-013
 0.910939E-013
 0.910939E-013
 0.910939E-013
 0.910939E-013
 0.910940E-013
 0.910940E-013
 0.910940E-013
 0.910940E-013
 0.910940E-013
 0.910941E-013
 0.910941E-013
 0.910941E-013
 0.910942E-013
 0.910942E-013
 0.910943E-013
 0.910943E-013
 0.910944E-013
 0.910945E-013
 0.910946E-013
 0.910947E-013
 0.910948E-013
 0.910949E-013
 0.910950E-013
 0.910951E-013
 0.910952E-013
 0.910954E-013
 0.910956E-013
 0.910957E-013
 0.910959E-013
 0.910961E-013
 0.910963E-013
 0.910965E-013
 0.910968E-013
 0.910970E-013
 0.910973E-013
 0.910975E-013
 0.910978E-013
 0.910981E-013
 0.910984E-013
 0.910987E-013
 0.910990E-013
 0.910993E-013
 0.910996E-013
 0.910999E-013
 0.911002E-013
 0.911005E-013
 0.911008E-013
 0.911010E-013
 0.911013E-013
 0.911016E-013
 0.911018E-013
 0.911020E-013
 0.911022E-013
 0.911024E-013
 0.911026E-013
 0.911027E-013
 0.911028E-013
 0.911029E-013
 0.911029E-013
 0.911030E-013
 0.911030E-013
 0.911029E-013
 0.911029E-013
 0.911028E-013
 0.911027E-013
 0.911025E-013
 0.911024E-013
 0.911022E-013
 0.911020E-013
 0.911018E-013
 0.911016E-013
 0.911013E-013
 0.911010E-013
 0.911008E-013
 0.911005E-013
 0.911002E-013
 0.910999E-013
 0.910996E-013
 0.910993E-013
 0.910990E-013
 0.910987E-013
 0.910984E-013
 0.910981E-013
 0.910978E-013
 0.910975E-013
 0.910973E-013
 0.910970E-013
 0.910968E-013
 0.910965E-013
 0.910963E-013
 0.910961E-013
 0.910959E-013
 0.910957E-013
 0.910955E-013
 0.910954E-013
 0.910952E-013
 0.910951E-013
 0.910949E-013
 0.910948E-013
 0.910947E-013
 0.910946E-013
 0.910945E-013
 0.910945E-013
 0.910944E-013
 0.910943E-013
 0.910943E-013
 0.910942E-013
 0.910942E-013
 0.910941E-013
 0.910941E-013
 0.910940E-013
 0.910940E-013
 0.910940E-013
 0.910940E-013
 0.910939E-013
 0.910939E-013
 0.910939E-013
 0.910939E-013
 0.910939E-013
 0.910939E-013
 0.910939E-013
 0.910939E-013
 0.910931E-013
 0.911575E-013
 0.911677E-013
 0.910931E-013
 0.910939E-013
 0.910939E-013
 0.910939E-013
 0.910939E-013
 0.910939E-013
 0.910940E-013
 0.910940E-013
 0.910940E-013
 0.910940E-013
 0.910941E-013
 0.910941E-013
 0.910941E-013
 0.910942E-013
 0.910942E-013
 0.910942E-013
 0.910943E-013
 0.910944E-013
 0.910944E-013
 0.910945E-013
 0.910946E-013
 0.910947E-013
 0.910948E-013
 0.910949E-013
 0.910950E-013
 0.910952E-013
 0.910953E-013
 0.910955E-013
 0.910957E-013
 0.910959E-013
 0.910961E-013
 0.910963E-013
 0.910965E-013
 0.910968E-013
 0.910971E-013
 0.910973E-013
 0.910976E-013
 0.910979E-013
 0.910983E-013
 0.910986E-013
 0.910989E-013
 0.910993E-013
 0.910996E-013
 0.911000E-013
 0.911003E-013
 0.911007E-013
 0.911011E-013
 0.911014E-013
 0.911018E-013
 0.911021E-013
 0.911024E-013
 0.911027E-013
 0.911030E-013
 0.911033E-013
 0.911036E-013
 0.911038E-013
 0.911040E-013
 0.911042E-013
 0.911044E-013
 0.911045E-013
 0.911046E-013
 0.911047E-013
 0.911047E-013
 0.911047E-013
 0.911047E-013
 0.911046E-013
 0.911045E-013
 0.911044E-013
 0.911042E-013
 0.911040E-013
 0.911038E-013
 0.911036E-013
 0.911033E-013
 0.911030E-013
 0.911027E-013
 0.911024E-013
 0.911021E-013
 0.911017E-013
 0.911014E-013
 0.911010E-013
 0.911007E-013
 0.911003E-013
 0.911000E-013
 0.910996E-013
 0.910992E-013
 0.910989E-013
 0.910986E-013
 0.910982E-013
 0.910979E-013
 0.910976E-013
 0.910973E-013
 0.910970E-013
 0.910968E-013
 0.910965E-013
 0.910963E-013
 0.910961E-013
 0.910958E-013
 0.910957E-013
 0.910955E-013
 0.910953E-013
 0.910952E-013
 0.910950E-013
 0.910949E-013
 0.910948E-013
 0.910947E-013
 0.910946E-013
 0.910945E-013
 0.910944E-013
 0.910943E-013
 0.910943E-013
 0.910942E-013
 0.910942E-013
 0.910941E-013
 0.910941E-013
 0.910940E-013
 0.910940E-013
 0.910940E-013
 0.910940E-013
 0.910939E-013
 0.910939E-013
 0.910939E-013
 0.910939E-013
 0.910939E-013
 0.910939E-013
 0.910939E-013
 0.910930E-013
 0.911680E-013
 0.911783E-013
 0.910929E-013
 0.910939E-013
 0.910939E-013
 0.910939E-013
 0.910939E-013
 0.910940E-013
 0.910940E-013
 0.910940E-013
 0.910940E-013
 0.910941E-013
 0.910941E-013
 0.910941E-013
 0.910942E-013
 0.910942E-013
 0.910943E-013
 0.910943E-013
 0.910944E-013
 0.910945E-013
 0.910945E-013
 0.910946E-013
 0.910947E-013
 0.910949E-013
 0.910950E-013
 0.910951E-013
 0.910953E-013
 0.910954E-013
 0.910956E-013
 0.910958E-013
 0.910960E-013
 0.910963E-013
 0.910965E-013
 0.910968E-013
 0.910970E-013
 0.910973E-013
 0.910977E-013
 0.910980E-013
 0.910983E-013
 0.910987E-013
 0.910991E-013
 0.910995E-013
 0.910999E-013
 0.911003E-013
 0.911007E-013
 0.911011E-013
 0.911016E-013
 0.911020E-013
 0.911024E-013
 0.911028E-013
 0.911033E-013
 0.911037E-013
 0.911040E-013
 0.911044E-013
 0.911048E-013
 0.911051E-013
 0.911054E-013
 0.911057E-013
 0.911060E-013
 0.911062E-013
 0.911064E-013
 0.911065E-013
 0.911066E-013
 0.911067E-013
 0.911068E-013
 0.911068E-013
 0.911067E-013
 0.911066E-013
 0.911065E-013
 0.911064E-013
 0.911062E-013
 0.911060E-013
 0.911057E-013
 0.911054E-013
 0.911051E-013
 0.911048E-013
 0.911044E-013
 0.911040E-013
 0.911036E-013
 0.911032E-013
 0.911028E-013
 0.911024E-013
 0.911020E-013
 0.911015E-013
 0.911011E-013
 0.911007E-013
 0.911003E-013
 0.910998E-013
 0.910994E-013
 0.910991E-013
 0.910987E-013
 0.910983E-013
 0.910980E-013
 0.910976E-013
 0.910973E-013
 0.910970E-013
 0.910967E-013
 0.910965E-013
 0.910962E-013
 0.910960E-013
 0.910958E-013
 0.910956E-013
 0.910954E-013
 0.910952E-013
 0.910951E-013
 0.910949E-013
 0.910948E-013
 0.910947E-013
 0.910946E-013
 0.910945E-013
 0.910944E-013
 0.910943E-013
 0.910943E-013
 0.910942E-013
 0.910942E-013
 0.910941E-013
 0.910941E-013
 0.910941E-013
 0.910940E-013
 0.910940E-013
 0.910940E-013
 0.910939E-013
 0.910939E-013
 0.910939E-013
 0.910939E-013
 0.910939E-013
 0.910939E-013
 0.910929E-013
 0.911786E-013
 0.911888E-013
 0.910928E-013
 0.910939E-013
 0.910939E-013
 0.910939E-013
 0.910940E-013
 0.910940E-013
 0.910940E-013
 0.910940E-013
 0.910941E-013
 0.910941E-013
 0.910941E-013
 0.910942E-013
 0.910942E-013
 0.910943E-013
 0.910943E-013
 0.910944E-013
 0.910945E-013
 0.910946E-013
 0.910947E-013
 0.910948E-013
 0.910949E-013
 0.910950E-013
 0.910952E-013
 0.910953E-013
 0.910955E-013
 0.910957E-013
 0.910959E-013
 0.910962E-013
 0.910964E-013
 0.910967E-013
 0.910970E-013
 0.910973E-013
 0.910976E-013
 0.910980E-013
 0.910984E-013
 0.910988E-013
 0.910992E-013
 0.910996E-013
 0.911000E-013
 0.911005E-013
 0.911010E-013
 0.911015E-013
 0.911020E-013
 0.911025E-013
 0.911030E-013
 0.911035E-013
 0.911040E-013
 0.911045E-013
 0.911050E-013
 0.911055E-013
 0.911059E-013
 0.911064E-013
 0.911068E-013
 0.911072E-013
 0.911076E-013
 0.911079E-013
 0.911082E-013
 0.911085E-013
 0.911087E-013
 0.911089E-013
 0.911090E-013
 0.911091E-013
 0.911091E-013
 0.911091E-013
 0.911091E-013
 0.911090E-013
 0.911089E-013
 0.911087E-013
 0.911085E-013
 0.911082E-013
 0.911079E-013
 0.911076E-013
 0.911072E-013
 0.911068E-013
 0.911064E-013
 0.911059E-013
 0.911055E-013
 0.911050E-013
 0.911045E-013
 0.911040E-013
 0.911035E-013
 0.911030E-013
 0.911024E-013
 0.911019E-013
 0.911014E-013
 0.911010E-013
 0.911005E-013
 0.911000E-013
 0.910996E-013
 0.910991E-013
 0.910987E-013
 0.910983E-013
 0.910979E-013
 0.910976E-013
 0.910973E-013
 0.910969E-013
 0.910967E-013
 0.910964E-013
 0.910961E-013
 0.910959E-013
 0.910957E-013
 0.910955E-013
 0.910953E-013
 0.910951E-013
 0.910950E-013
 0.910949E-013
 0.910947E-013
 0.910946E-013
 0.910945E-013
 0.910944E-013
 0.910944E-013
 0.910943E-013
 0.910942E-013
 0.910942E-013
 0.910941E-013
 0.910941E-013
 0.910941E-013
 0.910940E-013
 0.910940E-013
 0.910940E-013
 0.910939E-013
 0.910939E-013
 0.910939E-013
 0.910939E-013
 0.910939E-013
 0.910928E-013
 0.911891E-013
 0.911993E-013
 0.910927E-013
 0.910939E-013
 0.910939E-013
 0.910940E-013
 0.910940E-013
 0.910940E-013
 0.910940E-013
 0.910941E-013
 0.910941E-013
 0.910941E-013
 0.910942E-013
 0.910942E-013
 0.910943E-013
 0.910943E-013
 0.910944E-013
 0.910945E-013
 0.910946E-013
 0.910947E-013
 0.910948E-013
 0.910949E-013
 0.910951E-013
 0.910952E-013
 0.910954E-013
 0.910956E-013
 0.910958E-013
 0.910961E-013
 0.910963E-013
 0.910966E-013
 0.910969E-013
 0.910972E-013
 0.910975E-013
 0.910979E-013
 0.910983E-013
 0.910987E-013
 0.910992E-013
 0.910996E-013
 0.911001E-013
 0.911006E-013
 0.911012E-013
 0.911017E-013
 0.911023E-013
 0.911028E-013
 0.911034E-013
 0.911040E-013
 0.911046E-013
 0.911052E-013
 0.911058E-013
 0.911064E-013
 0.911070E-013
 0.911076E-013
 0.911081E-013
 0.911087E-013
 0.911092E-013
 0.911096E-013
 0.911101E-013
 0.911105E-013
 0.911108E-013
 0.911111E-013
 0.911114E-013
 0.911116E-013
 0.911118E-013
 0.911119E-013
 0.911119E-013
 0.911119E-013
 0.911119E-013
 0.911118E-013
 0.911116E-013
 0.911114E-013
 0.911111E-013
 0.911108E-013
 0.911104E-013
 0.911100E-013
 0.911096E-013
 0.911091E-013
 0.911086E-013
 0.911081E-013
 0.911076E-013
 0.911070E-013
 0.911064E-013
 0.911058E-013
 0.911052E-013
 0.911046E-013
 0.911040E-013
 0.911034E-013
 0.911028E-013
 0.911022E-013
 0.911017E-013
 0.911011E-013
 0.911006E-013
 0.911001E-013
 0.910996E-013
 0.910991E-013
 0.910987E-013
 0.910983E-013
 0.910979E-013
 0.910975E-013
 0.910972E-013
 0.910968E-013
 0.910965E-013
 0.910963E-013
 0.910960E-013
 0.910958E-013
 0.910956E-013
 0.910954E-013
 0.910952E-013
 0.910950E-013
 0.910949E-013
 0.910948E-013
 0.910946E-013
 0.910945E-013
 0.910945E-013
 0.910944E-013
 0.910943E-013
 0.910942E-013
 0.910942E-013
 0.910941E-013
 0.910941E-013
 0.910940E-013
 0.910940E-013
 0.910940E-013
 0.910940E-013
 0.910939E-013
 0.910939E-013
 0.910939E-013
 0.910939E-013
 0.910927E-013
 0.911997E-013
 0.912098E-013
 0.910926E-013
 0.910939E-013
 0.910940E-013
 0.910940E-013
 0.910940E-013
 0.910940E-013
 0.910941E-013
 0.910941E-013
 0.910941E-013
 0.910942E-013
 0.910942E-013
 0.910943E-013
 0.910943E-013
 0.910944E-013
 0.910945E-013
 0.910946E-013
 0.910947E-013
 0.910948E-013
 0.910950E-013
 0.910951E-013
 0.910953E-013
 0.910955E-013
 0.910957E-013
 0.910959E-013
 0.910962E-013
 0.910964E-013
 0.910967E-013
 0.910971E-013
 0.910974E-013
 0.910978E-013
 0.910982E-013
 0.910986E-013
 0.910991E-013
 0.910996E-013
 0.911001E-013
 0.911007E-013
 0.911012E-013
 0.911018E-013
 0.911025E-013
 0.911031E-013
 0.911038E-013
 0.911044E-013
 0.911051E-013
 0.911058E-013
 0.911065E-013
 0.911073E-013
 0.911080E-013
 0.911087E-013