# vtk DataFile Version 3.0
Solution data
ASCII
DATASET STRUCTURED_GRID
DIMENSIONS 128 128 1
POINTS 16384  double
      0.000004      0.000004      0.000000
      0.000012      0.000004      0.000000
      0.000020      0.000004      0.000000
      0.000027      0.000004      0.000000
      0.000035      0.000004      0.000000
      0.000043      0.000004      0.000000
      0.000051      0.000004      0.000000
      0.000059      0.000004      0.000000
      0.000066      0.000004      0.000000
      0.000074      0.000004      0.000000
      0.000082      0.000004      0.000000
      0.000090      0.000004      0.000000
      0.000098      0.000004      0.000000
      0.000105      0.000004      0.000000
      0.000113      0.000004      0.000000
      0.000121      0.000004      0.000000
      0.000129      0.000004      0.000000
      0.000137      0.000004      0.000000
      0.000145      0.000004      0.000000
      0.000152      0.000004      0.000000
      0.000160      0.000004      0.000000
      0.000168      0.000004      0.000000
      0.000176      0.000004      0.000000
      0.000184      0.000004      0.000000
      0.000191      0.000004      0.000000
      0.000199      0.000004      0.000000
      0.000207      0.000004      0.000000
      0.000215      0.000004      0.000000
      0.000223      0.000004      0.000000
      0.000230      0.000004      0.000000
      0.000238      0.000004      0.000000
      0.000246      0.000004      0.000000
      0.000254      0.000004      0.000000
      0.000262      0.000004      0.000000
      0.000270      0.000004      0.000000
      0.000277      0.000004      0.000000
      0.000285      0.000004      0.000000
      0.000293      0.000004      0.000000
      0.000301      0.000004      0.000000
      0.000309      0.000004      0.000000
      0.000316      0.000004      0.000000
      0.000324      0.000004      0.000000
      0.000332      0.000004      0.000000
      0.000340      0.000004      0.000000
      0.000348      0.000004      0.000000
      0.000355      0.000004      0.000000
      0.000363      0.000004      0.000000
      0.000371      0.000004      0.000000
      0.000379      0.000004      0.000000
      0.000387      0.000004      0.000000
      0.000395      0.000004      0.000000
      0.000402      0.000004      0.000000
      0.000410      0.000004      0.000000
      0.000418      0.000004      0.000000
      0.000426      0.000004      0.000000
      0.000434      0.000004      0.000000
      0.000441      0.000004      0.000000
      0.000449      0.000004      0.000000
      0.000457      0.000004      0.000000
      0.000465      0.000004      0.000000
      0.000473      0.000004      0.000000
      0.000480      0.000004      0.000000
      0.000488      0.000004      0.000000
      0.000496      0.000004      0.000000
      0.000504      0.000004      0.000000
      0.000512      0.000004      0.000000
      0.000520      0.000004      0.000000
      0.000527      0.000004      0.000000
      0.000535      0.000004      0.000000
      0.000543      0.000004      0.000000
      0.000551      0.000004      0.000000
      0.000559      0.000004      0.000000
      0.000566      0.000004      0.000000
      0.000574      0.000004      0.000000
      0.000582      0.000004      0.000000
      0.000590      0.000004      0.000000
      0.000598      0.000004      0.000000
      0.000605      0.000004      0.000000
      0.000613      0.000004      0.000000
      0.000621      0.000004      0.000000
      0.000629      0.000004      0.000000
      0.000637      0.000004      0.000000
      0.000645      0.000004      0.000000
      0.000652      0.000004      0.000000
      0.000660      0.000004      0.000000
      0.000668      0.000004      0.000000
      0.000676      0.000004      0.000000
      0.000684      0.000004      0.000000
      0.000691      0.000004      0.000000
      0.000699      0.000004      0.000000
      0.000707      0.000004      0.000000
      0.000715      0.000004      0.000000
      0.000723      0.000004      0.000000
      0.000730      0.000004      0.000000
      0.000738      0.000004      0.000000
      0.000746      0.000004      0.000000
      0.000754      0.000004      0.000000
      0.000762      0.000004      0.000000
      0.000770      0.000004      0.000000
      0.000777      0.000004      0.000000
      0.000785      0.000004      0.000000
      0.000793      0.000004      0.000000
      0.000801      0.000004      0.000000
      0.000809      0.000004      0.000000
      0.000816      0.000004      0.000000
      0.000824      0.000004      0.000000
      0.000832      0.000004      0.000000
      0.000840      0.000004      0.000000
      0.000848      0.000004      0.000000
      0.000855      0.000004      0.000000
      0.000863      0.000004      0.000000
      0.000871      0.000004      0.000000
      0.000879      0.000004      0.000000
      0.000887      0.000004      0.000000
      0.000895      0.000004      0.000000
      0.000902      0.000004      0.000000
      0.000910      0.000004      0.000000
      0.000918      0.000004      0.000000
      0.000926      0.000004      0.000000
      0.000934      0.000004      0.000000
      0.000941      0.000004      0.000000
      0.000949      0.000004      0.000000
      0.000957      0.000004      0.000000
      0.000965      0.000004      0.000000
      0.000973      0.000004      0.000000
      0.000980      0.000004      0.000000
      0.000988      0.000004      0.000000
      0.000996      0.000004      0.000000
      0.000004      0.000012      0.000000
      0.000012      0.000012      0.000000
      0.000020      0.000012      0.000000
      0.000027      0.000012      0.000000
      0.000035      0.000012      0.000000
      0.000043      0.000012      0.000000
      0.000051      0.000012      0.000000
      0.000059      0.000012      0.000000
      0.000066      0.000012      0.000000
      0.000074      0.000012      0.000000
      0.000082      0.000012      0.000000
      0.000090      0.000012      0.000000
      0.000098      0.000012      0.000000
      0.000105      0.000012      0.000000
      0.000113      0.000012      0.000000
      0.000121      0.000012      0.000000
      0.000129      0.000012      0.000000
      0.000137      0.000012      0.000000
      0.000145      0.000012      0.000000
      0.000152      0.000012      0.000000
      0.000160      0.000012      0.000000
      0.000168      0.000012      0.000000
      0.000176      0.000012      0.000000
      0.000184      0.000012      0.000000
      0.000191      0.000012      0.000000
      0.000199      0.000012      0.000000
      0.000207      0.000012      0.000000
      0.000215      0.000012      0.000000
      0.000223      0.000012      0.000000
      0.000230      0.000012      0.000000
      0.000238      0.000012      0.000000
      0.000246      0.000012      0.000000
      0.000254      0.000012      0.000000
      0.000262      0.000012      0.000000
      0.000270      0.000012      0.000000
      0.000277      0.000012      0.000000
      0.000285      0.000012      0.000000
      0.000293      0.000012      0.000000
      0.000301      0.000012      0.000000
      0.000309      0.000012      0.000000
      0.000316      0.000012      0.000000
      0.000324      0.000012      0.000000
      0.000332      0.000012      0.000000
      0.000340      0.000012      0.000000
      0.000348      0.000012      0.000000
      0.000355      0.000012      0.000000
      0.000363      0.000012      0.000000
      0.000371      0.000012      0.000000
      0.000379      0.000012      0.000000
      0.000387      0.000012      0.000000
      0.000395      0.000012      0.000000
      0.000402      0.000012      0.000000
      0.000410      0.000012      0.000000
      0.000418      0.000012      0.000000
      0.000426      0.000012      0.000000
      0.000434      0.000012      0.000000
      0.000441      0.000012      0.000000
      0.000449      0.000012      0.000000
      0.000457      0.000012      0.000000
      0.000465      0.000012      0.000000
      0.000473      0.000012      0.000000
      0.000480      0.000012      0.000000
      0.000488      0.000012      0.000000
      0.000496      0.000012      0.000000
      0.000504      0.000012      0.000000
      0.000512      0.000012      0.000000
      0.000520      0.000012      0.000000
      0.000527      0.000012      0.000000
      0.000535      0.000012      0.000000
      0.000543      0.000012      0.000000
      0.000551      0.000012      0.000000
      0.000559      0.000012      0.000000
      0.000566      0.000012      0.000000
      0.000574      0.000012      0.000000
      0.000582      0.000012      0.000000
      0.000590      0.000012      0.000000
      0.000598      0.000012      0.000000
      0.000605      0.000012      0.000000
      0.000613      0.000012      0.000000
      0.000621      0.000012      0.000000
      0.000629      0.000012      0.000000
      0.000637      0.000012      0.000000
      0.000645      0.000012      0.000000
      0.000652      0.000012      0.000000
      0.000660      0.000012      0.000000
      0.000668      0.000012      0.000000
      0.000676      0.000012      0.000000
      0.000684      0.000012      0.000000
      0.000691      0.000012      0.000000
      0.000699      0.000012      0.000000
      0.000707      0.000012      0.000000
      0.000715      0.000012      0.000000
      0.000723      0.000012      0.000000
      0.000730      0.000012      0.000000
      0.000738      0.000012      0.000000
      0.000746      0.000012      0.000000
      0.000754      0.000012      0.000000
      0.000762      0.000012      0.000000
      0.000770      0.000012      0.000000
      0.000777      0.000012      0.000000
      0.000785      0.000012      0.000000
[...]
POINT_DATA 16384
SCALARS rhoe double
LOOKUP_TABLE default
 0.914967E-013
 0.913162E-013
 0.914975E-013
 0.915845E-013
 0.916905E-013
 0.917931E-013
 0.918958E-013
 0.919983E-013
 0.921006E-013
 0.922026E-013
 0.923043E-013
 0.924058E-013
 0.925070E-013
 0.926078E-013
 0.927083E-013
 0.928085E-013
 0.929083E-013
 0.930076E-013
 0.931066E-013
 0.932050E-013
 0.933030E-013
 0.934004E-013
 0.934972E-013
 0.935934E-013
 0.936888E-013
 0.937836E-013
 0.938775E-013
 0.939705E-013
 0.940626E-013
 0.941537E-013
 0.942437E-013
 0.943325E-013
 0.944201E-013
 0.945064E-013
 0.945912E-013
 0.946746E-013
 0.947563E-013
 0.948364E-013
 0.949147E-013
 0.949910E-013
 0.950654E-013
 0.951377E-013
 0.952078E-013
 0.952756E-013
 0.953409E-013
 0.954038E-013
 0.954641E-013
 0.955216E-013
 0.955764E-013
 0.956282E-013
 0.956771E-013
 0.957229E-013
 0.957655E-013
 0.958048E-013
 0.958409E-013
 0.958735E-013
 0.959027E-013
 0.959283E-013
 0.959504E-013
 0.959689E-013
 0.959838E-013
 0.959949E-013
 0.960023E-013
 0.960061E-013
 0.960061E-013
 0.960023E-013
 0.959949E-013
 0.959837E-013
 0.959689E-013
 0.959504E-013
 0.959283E-013
 0.959026E-013
 0.958734E-013
 0.958408E-013
 0.958047E-013
 0.957654E-013
 0.957228E-013
 0.956770E-013
 0.956281E-013
 0.955763E-013
 0.955215E-013
 0.954639E-013
 0.954037E-013
 0.953408E-013
 0.952754E-013
 0.952076E-013
 0.951375E-013
 0.950653E-013
 0.949909E-013
 0.949145E-013
 0.948362E-013
 0.947562E-013
 0.946744E-013
 0.945911E-013
 0.945062E-013
 0.944199E-013
 0.943323E-013
 0.942435E-013
 0.941535E-013
 0.940624E-013
 0.939703E-013
 0.938773E-013
 0.937834E-013
 0.936886E-013
 0.935932E-013
 0.934970E-013
 0.934002E-013
 0.933028E-013
 0.932049E-013
 0.931064E-013
 0.930075E-013
 0.929081E-013
 0.928083E-013
 0.927082E-013
 0.926077E-013
 0.925068E-013
 0.924057E-013
 0.923042E-013
 0.922025E-013
 0.921005E-013
 0.919982E-013
 0.918958E-013
 0.917930E-013
 0.916904E-013
 0.915844E-013
 0.914974E-013
 0.913162E-013
 0.914966E-013
 0.913162E-013
 0.909083E-013
 0.909853E-013
 0.909225E-013
 0.908903E-013
 0.908529E-013
 0.908164E-013
 0.907798E-013
 0.907434E-013
 0.907071E-013
 0.906709E-013
 0.906348E-013
 0.905988E-013
 0.905630E-013
 0.905272E-013
 0.904917E-013
 0.904562E-013
 0.904209E-013
 0.903858E-013
 0.903509E-013
 0.903162E-013
 0.902816E-013
 0.902473E-013
 0.902133E-013
 0.901795E-013
 0.901459E-013
 0.901127E-013
 0.900798E-013
 0.900472E-013
 0.900150E-013
 0.899832E-013
 0.899518E-013
 0.899209E-013
 0.898904E-013
 0.898605E-013
 0.898311E-013
 0.898022E-013
 0.897740E-013
 0.897464E-013
 0.897195E-013
 0.896933E-013
 0.896678E-013
 0.896431E-013
 0.896193E-013
 0.895962E-013
 0.895741E-013
 0.895529E-013
 0.895327E-013
 0.895134E-013
 0.894952E-013
 0.894780E-013
 0.894619E-013
 0.894469E-013
 0.894331E-013
 0.894204E-013
 0.894090E-013
 0.893987E-013
 0.893897E-013
 0.893820E-013
 0.893755E-013
 0.893703E-013
 0.893664E-013
 0.893637E-013
 0.893624E-013
 0.893624E-013
 0.893637E-013
 0.893664E-013
 0.893703E-013
 0.893755E-013
 0.893820E-013
 0.893898E-013
 0.893988E-013
 0.894090E-013
 0.894205E-013
 0.894332E-013
 0.894470E-013
 0.894620E-013
 0.894781E-013
 0.894952E-013
 0.895135E-013
 0.895327E-013
 0.895530E-013
 0.895742E-013
 0.895963E-013
 0.896193E-013
 0.896432E-013
 0.896679E-013
 0.896934E-013
 0.897196E-013
 0.897465E-013
 0.897741E-013
 0.898023E-013
 0.898312E-013
 0.898606E-013
 0.898905E-013
 0.899210E-013
 0.899519E-013
 0.899833E-013
 0.900151E-013
 0.900473E-013
 0.900799E-013
 0.901128E-013
 0.901460E-013
 0.901796E-013
 0.902134E-013
 0.902474E-013
 0.902818E-013
 0.903163E-013
 0.903510E-013
 0.903859E-013
 0.904210E-013
 0.904563E-013
 0.904917E-013
 0.905273E-013
 0.905630E-013
 0.905989E-013
 0.906349E-013
 0.906710E-013
 0.907072E-013
 0.907435E-013
 0.907799E-013
 0.908164E-013
 0.908530E-013
 0.908904E-013
 0.909226E-013
 0.909853E-013
 0.909083E-013
 0.913162E-013
 0.914975E-013
 0.909853E-013
 0.911562E-013
 0.911284E-013
 0.911441E-013
 0.911523E-013
 0.911615E-013
 0.911705E-013
 0.911795E-013
 0.911885E-013
 0.911975E-013
 0.912064E-013
 0.912153E-013
 0.912242E-013
 0.912330E-013
 0.912418E-013
 0.912506E-013
 0.912593E-013
 0.912680E-013
 0.912766E-013
 0.912852E-013
 0.912937E-013
 0.913022E-013
 0.913106E-013
 0.913190E-013
 0.913273E-013
 0.913355E-013
 0.913436E-013
 0.913516E-013
 0.913596E-013
 0.913675E-013
 0.913752E-013
 0.913828E-013
 0.913904E-013
 0.913978E-013
 0.914050E-013
 0.914121E-013
 0.914191E-013
 0.914259E-013
 0.914326E-013
 0.914391E-013
 0.914453E-013
 0.914514E-013
 0.914573E-013
 0.914630E-013
 0.914685E-013
 0.914737E-013
 0.914787E-013
 0.914835E-013
 0.914880E-013
 0.914922E-013
 0.914962E-013
 0.914999E-013
 0.915033E-013
 0.915064E-013
 0.915093E-013
 0.915118E-013
 0.915140E-013
 0.915159E-013
 0.915175E-013
 0.915188E-013
 0.915198E-013
 0.915204E-013
 0.915208E-013
 0.915208E-013
 0.915204E-013
 0.915198E-013
 0.915188E-013
 0.915175E-013
 0.915159E-013
 0.915140E-013
 0.915118E-013
 0.915092E-013
 0.915064E-013
 0.915033E-013
 0.914999E-013
 0.914962E-013
 0.914922E-013
 0.914880E-013
 0.914835E-013
 0.914787E-013
 0.914737E-013
 0.914685E-013
 0.914630E-013
 0.914573E-013
 0.914514E-013
 0.914453E-013
 0.914390E-013
 0.914326E-013
 0.914259E-013
 0.914191E-013
 0.914121E-013
 0.914050E-013
 0.913977E-013
 0.913903E-013
 0.913828E-013
 0.913752E-013
 0.913674E-013
 0.913596E-013
 0.913516E-013
 0.913436E-013
 0.913354E-013
 0.913272E-013
 0.913189E-013
 0.913106E-013
 0.913022E-013
 0.912937E-013
 0.912852E-013
 0.912766E-013
 0.912679E-013
 0.912593E-013
 0.912505E-013
 0.912418E-013
 0.912330E-013
 0.912241E-013
 0.912153E-013
 0.912064E-013
 0.911974E-013
 0.911885E-013
 0.911795E-013
 0.911705E-013
 0.911615E-013
 0.911523E-013
 0.911441E-013
 0.911284E-013
 0.911562E-013
 0.909853E-013
 0.914974E-013
 0.915845E-013
 0.909225E-013
 0.911284E-013
 0.910789E-013
 0.910857E-013
 0.910828E-013
 0.910812E-013
 0.910795E-013
 0.910778E-013
 0.910761E-013
 0.910744E-013
 0.910727E-013
 0.910710E-013
 0.910693E-013
 0.910677E-013
 0.910660E-013
 0.910644E-013
 0.910627E-013
 0.910611E-013
 0.910595E-013
 0.910579E-013
 0.910563E-013
 0.910547E-013
 0.910531E-013
 0.910515E-013
 0.910500E-013
 0.910484E-013
 0.910469E-013
 0.910454E-013
 0.910439E-013
 0.910424E-013
 0.910410E-013
 0.910396E-013
 0.910381E-013
 0.910368E-013
 0.910354E-013
 0.910341E-013
 0.910328E-013
 0.910315E-013
 0.910303E-013
 0.910291E-013
 0.910279E-013
 0.910268E-013
 0.910257E-013
 0.910246E-013
 0.910236E-013
 0.910227E-013
 0.910217E-013
 0.910209E-013
 0.910200E-013
 0.910193E-013
 0.910185E-013
 0.910179E-013
 0.910172E-013
 0.910166E-013
 0.910161E-013
 0.910157E-013
 0.910153E-013
 0.910149E-013
 0.910146E-013
 0.910144E-013
 0.910142E-013
 0.910141E-013
 0.910140E-013
 0.910140E-013
 0.910141E-013
 0.910142E-013
 0.910144E-013
 0.910146E-013
 0.910149E-013
 0.910153E-013
 0.910157E-013
 0.910161E-013
 0.910167E-013
 0.910172E-013
 0.910179E-013
 0.910185E-013
 0.910193E-013
 0.910200E-013
 0.910209E-013
 0.910218E-013
 0.910227E-013
 0.910236E-013
 0.910247E-013
 0.910257E-013
 0.910268E-013
 0.910279E-013
 0.910291E-013
 0.910303E-013
 0.910315E-013
 0.910328E-013
 0.910341E-013
 0.910354E-013
 0.910368E-013
 0.910382E-013
 0.910396E-013
 0.910410E-013
 0.910424E-013
 0.910439E-013
 0.910454E-013
 0.910469E-013
 0.910484E-013
 0.910500E-013
 0.910515E-013
 0.910531E-013
 0.910547E-013
 0.910563E-013
 0.910579E-013
 0.910595E-013
 0.910611E-013
 0.910627E-013
 0.910644E-013
 0.910660E-013
 0.910677E-013
 0.910694E-013
 0.910710E-013
 0.910727E-013
 0.910744E-013
 0.910761E-013
 0.910778E-013
 0.910795E-013
 0.910812E-013
 0.910828E-013
 0.910857E-013
 0.910789E-013
 0.911284E-013
 0.909226E-013
 0.915844E-013
 0.916905E-013
 0.908903E-013
 0.911441E-013
 0.910857E-013
 0.910966E-013
 0.910953E-013
 0.910958E-013
 0.910960E-013
 0.910963E-013
 0.910965E-013
 0.910968E-013
 0.910970E-013
 0.910973E-013
 0.910975E-013
 0.910978E-013
 0.910980E-013
 0.910983E-013
 0.910985E-013
 0.910988E-013
 0.910990E-013
 0.910993E-013
 0.910995E-013
 0.910998E-013
 0.911000E-013
 0.911003E-013
 0.911005E-013
 0.911008E-013
 0.911010E-013
 0.911012E-013
 0.911015E-013
 0.911017E-013
 0.911019E-013
 0.911021E-013
 0.911024E-013
 0.911026E-013
 0.911028E-013
 0.911030E-013
 0.911032E-013
 0.911034E-013
 0.911036E-013
 0.911038E-013
 0.911040E-013
 0.911042E-013
 0.911044E-013
 0.911046E-013
 0.911047E-013
 0.911049E-013
 0.911051E-013
 0.911052E-013
 0.911053E-013
 0.911055E-013
 0.911056E-013
 0.911057E-013
 0.911058E-013
 0.911059E-013
 0.911060E-013
 0.911061E-013
 0.911062E-013
 0.911062E-013
 0.911063E-013
 0.911063E-013
 0.911064E-013
 0.911064E-013
 0.911064E-013
 0.911064E-013
 0.911064E-013
 0.911064E-013
 0.911063E-013
 0.911063E-013
 0.911062E-013
 0.911062E-013
 0.911061E-013
 0.911060E-013
 0.911059E-013
 0.911058E-013
 0.911057E-013
 0.911056E-013
 0.911055E-013
 0.911054E-013
 0.911052E-013
 0.911051E-013
 0.911049E-013
 0.911047E-013
 0.911046E-013
 0.911044E-013
 0.911042E-013
 0.911040E-013
 0.911038E-013
 0.911036E-013
 0.911034E-013
 0.911032E-013
 0.911030E-013
 0.911028E-013
 0.911026E-013
 0.911024E-013
 0.911021E-013
 0.911019E-013
 0.911017E-013
 0.911015E-013
 0.911012E-013
 0.911010E-013
 0.911008E-013
 0.911005E-013
 0.911003E-013
 0.911000E-013
 0.910998E-013
 0.910995E-013
 0.910993E-013
 0.910991E-013
 0.910988E-013
 0.910986E-013
 0.910983E-013
 0.910980E-013
 0.910978E-013
 0.910975E-013
 0.910973E-013
 0.910970E-013
 0.910968E-013
 0.910965E-013
 0.910963E-013
 0.910960E-013
 0.910958E-013
 0.910953E-013
 0.910966E-013
 0.910858E-013
 0.911441E-013
 0.908904E-013
 0.916904E-013
 0.917931E-013
 0.908529E-013
 0.911523E-013
 0.910828E-013
 0.910953E-013
 0.910934E-013
 0.910936E-013
 0.910935E-013
 0.910935E-013
 0.910935E-013
 0.910934E-013
 0.910934E-013
 0.910934E-013
 0.910933E-013
 0.910933E-013
 0.910933E-013
 0.910933E-013
 0.910932E-013
 0.910932E-013
 0.910932E-013
 0.910931E-013
 0.910931E-013
 0.910931E-013
 0.910931E-013
 0.910930E-013
 0.910930E-013
 0.910930E-013
 0.910930E-013
 0.910929E-013
 0.910929E-013
 0.910929E-013
 0.910929E-013
 0.910929E-013
 0.910928E-013
 0.910928E-013
 0.910928E-013
 0.910928E-013
 0.910928E-013
 0.910928E-013
 0.910928E-013
 0.910928E-013
 0.910927E-013
 0.910927E-013
 0.910927E-013
 0.910927E-013
 0.910927E-013
 0.910927E-013
 0.910927E-013
 0.910927E-013
 0.910927E-013
 0.910927E-013
 0.910927E-013
 0.910927E-013
 0.910927E-013
 0.910927E-013
 0.910927E-013
 0.910927E-013
 0.910928E-013
 0.910928E-013
 0.910928E-013
 0.910928E-013
 0.910928E-013
 0.910928E-013
 0.910928E-013
 0.910928E-013
 0.910928E-013
 0.910928E-013
 0.910928E-013
 0.910928E-013
 0.910928E-013
 0.910928E-013
 0.910928E-013
 0.910927E-013
 0.910927E-013
 0.910927E-013
 0.910927E-013
 0.910927E-013
 0.910927E-013
 0.910927E-013
 0.910927E-013
 0.910927E-013
 0.910927E-013
 0.910927E-013
 0.910927E-013
 0.910927E-013
 0.910927E-013
 0.910928E-013
 0.910928E-013
 0.910928E-013
 0.910928E-013
 0.910928E-013
 0.910928E-013
 0.910928E-013
 0.910928E-013
 0.910928E-013
 0.910929E-013
 0.910929E-013
 0.910929E-013
 0.910929E-013
 0.910929E-013
 0.910930E-013
 0.910930E-013
 0.910930E-013
 0.910930E-013
 0.910931E-013
 0.910931E-013
 0.910931E-013
 0.910931E-013
 0.910932E-013
 0.910932E-013
 0.910932E-013
 0.910933E-013
 0.910933E-013
 0.910933E-013
 0.910934E-013
 0.910934E-013
 0.910934E-013
 0.910935E-013
 0.910935E-013
 0.910935E-013
 0.910936E-013
 0.910936E-013
 0.910934E-013
 0.910953E-013
 0.910828E-013
 0.911523E-013
 0.908530E-013
 0.917930E-013
 0.918958E-013
 0.908164E-013
 0.911615E-013
 0.910812E-013
 0.910958E-013
 0.910936E-013
 0.910939E-013
 0.910939E-013
 0.910939E-013
 0.910939E-013
 0.910939E-013
 0.910939E-013
 0.910939E-013
 0.910939E-013
 0.910939E-013
 0.910939E-013
 0.910939E-013
 0.910939E-013
 0.910939E-013
 0.910939E-013
 0.910939E-013
 0.910939E-013
 0.910939E-013
 0.910939E-013
 0.910939E-013
 0.910939E-013
 0.910940E-013
 0.910940E-013
 0.910940E-013
 0.910940E-013
 0.910940E-013
 0.910940E-013
 0.910940E-013
 0.910941E-013
 0.910941E-013
 0.910941E-013
 0.910941E-013
 0.910941E-013
 0.910941E-013
 0.910942E-013
 0.910942E-013
 0.910942E-013
 0.910942E-013
 0.910943E-013
 0.910943E-013
 0.910943E-013
 0.910943E-013
 0.910943E-013
 0.910944E-013
 0.910944E-013
 0.910944E-013
 0.910944E-013
 0.910945E-013
 0.910945E-013
 0.910945E-013
 0.910945E-013
 0.910945E-013
 0.910945E-013
 0.910946E-013
 0.910946E-013
 0.910946E-013
 0.910946E-013
 0.910946E-013
 0.910946E-013
 0.910946E-013
 0.910946E-013
 0.910946E-013
 0.910946E-013
 0.910946E-013
 0.910946E-013
 0.910945E-013
 0.910945E-013
 0.910945E-013
 0.910945E-013
 0.910945E-013
 0.910945E-013
 0.910944E-013
 0.910944E-013
 0.910944E-013
 0.910944E-013
 0.910944E-013
 0.910943E-013
 0.910943E-013
 0.910943E-013
 0.910943E-013
 0.910942E-013
 0.910942E-013
 0.910942E-013
 0.910942E-013
 0.910942E-013
 0.910941E-013
 0.910941E-013
 0.910941E-013
 0.910941E-013
 0.910941E-013
 0.910940E-013
 0.910940E-013
 0.910940E-013
 0.910940E-013
 0.910940E-013
 0.910940E-013
 0.910940E-013
 0.910940E-013
 0.910939E-013
 0.910939E-013
 0.910939E-013
 0.910939E-013
 0.910939E-013
 0.910939E-013
 0.910939E-013
 0.910939E-013
 0.910939E-013
 0.910939E-013
 0.910939E-013
 0.910939E-013
 0.910939E-013
 0.910939E-013
 0.910939E-013
 0.910939E-013
 0.910939E-013
 0.910939E-013
 0.910939E-013
 0.910936E-013
 0.910958E-013
 0.910812E-013
 0.911615E-013
 0.908164E-013
 0.918958E-013
 0.919983E-013
 0.907798E-013
 0.911705E-013
 0.910795E-013
 0.910960E-013
 0.910935E-013
 0.910939E-013
 0.910938E-013
 0.910938E-013
 0.910938E-013
 0.910938E-013
 0.910938E-013
 0.910938E-013
 0.910938E-013
 0.910938E-013
 0.910938E-013
 0.910938E-013
 0.910938E-013
 0.910938E-013
 0.910938E-013
 0.910938E-013
 0.910938E-013
 0.910938E-013
 0.910938E-013
 0.910938E-013
 0.910939E-013
 0.910939E-013
 0.910939E-013
 0.910939E-013
 0.910939E-013
 0.910939E-013
 0.910939E-013
 0.910939E-013
 0.910939E-013
 0.910940E-013
 0.910940E-013
 0.910940E-013
 0.910940E-013
 0.910940E-013
 0.910941E-013
 0.910941E-013
 0.910941E-013
 0.910941E-013
 0.910942E-013
 0.910942E-013
 0.910942E-013
 0.910942E-013
 0.910943E-013
 0.910943E-013
 0.910943E-013
 0.910943E-013
 0.910943E-013
 0.910944E-013
 0.910944E-013
 0.910944E-013
 0.910944E-013
 0.910944E-013
 0.910945E-013
 0.910945E-013
 0.910945E-013
 0.910945E-013
 0.910945E-013
 0.910945E-013
 0.910945E-013
 0.910945E-013
 0.910945E-013
 0.910945E-013
 0.910945E-013
 0.910945E-013
 0.910945E-013
 0.910945E-013
 0.910945E-013
 0.910944E-013
 0.910944E-013
 0.910944E-013
 0.910944E-013
 0.910944E-013
 0.910943E-013
 0.910943E-013
 0.910943E-013
 0.910943E-013
 0.910942E-013
 0.910942E-013
 0.910942E-013
 0.910942E-013
 0.910941E-013
 0.910941E-013
 0.910941E-013
 0.910941E-013
 0.910940E-013
 0.910940E-013
 0.910940E-013
 0.910940E-013
 0.910940E-013
 0.910940E-013
 0.910939E-013
 0.910939E-013
 0.910939E-013
 0.910939E-013
 0.910939E-013
 0.910939E-013
 0.910939E-013
 0.910939E-013
 0.910939E-013
 0.910938E-013
 0.910938E-013
 0.910938E-013
 0.910938E-013
 0.910938E-013
 0.910938E-013
 0.910938E-013
 0.910938E-013
 0.910938E-013
 0.910938E-013
 0.910938E-013
 0.910938E-013
 0.910938E-013
 0.910938E-013
 0.910938E-013
 0.910938E-013
 0.910938E-013
 0.910939E-013
 0.910936E-013
 0.910960E-013
 0.910795E-013
 0.911705E-013
 0.907799E-013
 0.919982E-013
 0.921006E-013
 0.907434E-013
 0.911795E-013
 0.910778E-013
 0.910963E-013
 0.910935E-013
 0.910939E-013
 0.910938E-013
 0.910938E-013
 0.910938E-013
 0.910938E-013
 0.910938E-013
 0.910938E-013
 0.910938E-013
 0.910938E-013
 0.910938E-013
 0.910938E-013
 0.910938E-013
 0.910938E-013
 0.910938E-013
 0.910938E-013
 0.910938E-013
 0.910939E-013
 0.910939E-013
 0.910939E-013
 0.910939E-013
 0.910939E-013
 0.910939E-013
 0.910939E-013
 0.910939E-013
 0.910939E-013
 0.910940E-013
 0.910940E-013
 0.910940E-013
 0.910940E-013
 0.910940E-013
 0.910941E-013
 0.910941E-013
 0.910941E-013
 0.910941E-013
 0.910942E-013
 0.910942E-013
 0.910942E-013
 0.910942E-013
 0.910943E-013
 0.910943E-013
 0.910943E-013
 0.910944E-013
 0.910944E-013
 0.910944E-013
 0.910944E-013
 0.910945E-013
 0.910945E-013
 0.910945E-013
 0.910946E-013
 0.910946E-013
 0.910946E-013
 0.910946E-013
 0.910946E-013
 0.910946E-013
 0.910947E-013
 0.910947E-013
 0.910947E-013
 0.910947E-013
 0.910947E-013
 0.910947E-013
 0.910947E-013
 0.910947E-013
 0.910946E-013
 0.910946E-013
 0.910946E-013
 0.910946E-013
 0.910946E-013
 0.910946E-013
 0.910945E-013
 0.910945E-013
 0.910945E-013
 0.910945E-013
 0.910944E-013
 0.910944E-013
 0.910944E-013
 0.910943E-013
 0.910943E-013
 0.910943E-013
 0.910942E-013
 0.910942E-013
 0.910942E-013
 0.910942E-013
 0.910941E-013
 0.910941E-013
 0.910941E-013
 0.910941E-013
 0.910940E-013
 0.910940E-013
 0.910940E-013
 0.910940E-013
 0.910940E-013
 0.910939E-013
 0.910939E-013
 0.910939E-013
 0.910939E-013
 0.910939E-013
 0.910939E-013
 0.910939E-013
 0.910939E-013
 0.910939E-013
 0.910939E-013
 0.910938E-013
 0.910938E-013
 0.910938E-013
 0.910938E-013
 0.910938E-013
 0.910938E-013
 0.910938E-013
 0.910938E-013
 0.910938E-013
 0.910938E-013
 0.910938E-013
 0.910938E-013
 0.910938E-013
 0.910938E-013
 0.910939E-013
 0.910935E-013
 0.910963E-013
 0.910778E-013
 0.911795E-013
 0.907435E-013
 0.921005E-013
 0.922026E-013
 0.907071E-013
 0.911885E-013
 0.910761E-013
 0.910965E-013
 0.910935E-013
 0.910939E-013
 0.910938E-013
 0.910938E-013
 0.910938E-013
 0.910938E-013
 0.910938E-013
 0.910938E-013
 0.910938E-013
 0.910938E-013
 0.910938E-013
 0.910938E-013
 0.910938E-013
 0.910938E-013
 0.910938E-013
 0.910938E-013
 0.910939E-013
 0.910939E-013
 0.910939E-013
 0.910939E-013
 0.910939E-013
 0.910939E-013
 0.910939E-013
 0.910939E-013
 0.910939E-013
 0.910940E-013
 0.910940E-013
 0.910940E-013
 0.910940E-013
 0.910940E-013
 0.910941E-013
 0.910941E-013
 0.910941E-013
 0.910942E-013
 0.910942E-013
 0.910942E-013
 0.910942E-013
 0.910943E-013
 0.910943E-013
 0.910944E-013
 0.910944E-013
 0.910944E-013
 0.910945E-013
 0.910945E-013
 0.910945E-013
 0.910946E-013
 0.910946E-013
 0.910946E-013
 0.910947E-013
 0.910947E-013
 0.910947E-013
 0.910947E-013
 0.910948E-013
 0.910948E-013
 0.910948E-013
 0.910948E-013
 0.910948E-013
 0.910948E-013
 0.910948E-013
 0.910948E-013
 0.910948E-013
 0.910948E-013
 0.910948E-013
 0.910948E-013
 0.910948E-013
 0.910948E-013
 0.910947E-013
 0.910947E-013
 0.910947E-013
 0.910947E-013
 0.910946E-013
 0.910946E-013
 0.910946E-013
 0.910945E-013
 0.910945E-013
 0.910945E-013
 0.910944E-013
 0.910944E-013
 0.910944E-013
 0.910943E-013
 0.910943E-013
 0.910943E-013
 0.910942E-013
 0.910942E-013
 0.910942E-013
 0.910941E-013
 0.910941E-013
 0.910941E-013
 0.910941E-013
 0.910940E-013
 0.910940E-013
 0.910940E-013
 0.910940E-013
 0.910940E-013
 0.910939E-013
 0.910939E-013
 0.910939E-013
 0.910939E-013
 0.910939E-013
 0.910939E-013
 0.910939E-013
 0.910939E-013
 0.910939E-013
 0.910938E-013
 0.910938E-013
 0.910938E-013
 0.910938E-013
 0.910938E-013
 0.910938E-013
 0.910938E-013
 0.910938E-013
 0.910938E-013
 0.910938E-013
 0.910938E-013
 0.910938E-013
 0.910938E-013
 0.910939E-013
 0.910935E-013
 0.910965E-013
 0.910761E-013
 0.911885E-013
 0.907072E-013
 0.922025E-013
 0.923043E-013
 0.906709E-013
 0.911975E-013
 0.910744E-013
 0.910968E-013
 0.910934E-013
 0.910939E-013
 0.910938E-013
 0.910938E-013
 0.910938E-013
 0.910938E-013
 0.910938E-013
 0.910938E-013
 0.910938E-013
 0.910938E-013
 0.910938E-013
 0.910938E-013
 0.910938E-013
 0.910938E-013
 0.910938E-013
 0.910939E-013
 0.910939E-013
 0.910939E-013
 0.910939E-013
 0.910939E-013
 0.910939E-013
 0.910939E-013
 0.910939E-013
 0.910939E-013
 0.910940E-013
 0.910940E-013
 0.910940E-013
 0.910940E-013
 0.910941E-013
 0.910941E-013
 0.910941E-013
 0.910942E-013
 0.910942E-013
 0.910942E-013
 0.910943E-013
 0.910943E-013
 0.910943E-013
 0.910944E-013
 0.910944E-013
 0.910945E-013
 0.910945E-013
 0.910945E-013
 0.910946E-013
 0.910946E-013