# vtk DataFile Version 3.0
Solution data
ASCII
DATASET STRUCTURED_GRID
DIMENSIONS 128 128 1
POINTS 16384  double
      0.000004      0.000004      0.000000
      0.000012      0.000004      0.000000
      0.000020      0.000004      0.000000
      0.000027      0.000004      0.000000
      0.000035      0.000004      0.000000
      0.000043      0.000004      0.000000
      0.000051      0.000004      0.000000
      0.000059      0.000004      0.000000
      0.000066      0.000004      0.000000
      0.000074      0.000004      0.000000
      0.000082      0.000004      0.000000
      0.000090      0.000004      0.000000
      0.000098      0.000004      0.000000
      0.000105      0.000004      0.000000
      0.000113      0.000004      0.000000
      0.000121      0.000004      0.000000
      0.000129      0.000004      0.000000
      0.000137      0.000004      0.000000
      0.000145      0.000004      0.000000
      0.000152      0.000004      0.000000
      0.000160      0.000004      0.000000
      0.000168      0.000004      0.000000
      0.000176      0.000004      0.000000
      0.000184      0.000004      0.000000
      0.000191      0.000004      0.000000
      0.000199      0.000004      0.000000
      0.000207      0.000004      0.000000
      0.000215      0.000004      0.000000
      0.000223      0.000004      0.000000
      0.000230      0.000004      0.000000
      0.000238      0.000004      0.000000
      0.000246      0.000004      0.000000
      0.000254      0.000004      0.000000
      0.000262      0.000004      0.000000
      0.000270      0.000004      0.000000
      0.000277      0.000004      0.000000
      0.000285      0.000004      0.000000
      0.000293      0.000004      0.000000
      0.000301      0.000004      0.000000
      0.000309      0.000004      0.000000
      0.000316      0.000004      0.000000
      0.000324      0.000004      0.000000
      0.000332      0.000004      0.000000
      0.000340      0.000004      0.000000
      0.000348      0.000004      0.000000
      0.000355      0.000004      0.000000
      0.000363      0.000004      0.000000
      0.000371      0.000004      0.000000
      0.000379      0.000004      0.000000
      0.000387      0.000004      0.000000
      0.000395      0.000004      0.000000
      0.000402      0.000004      0.000000
      0.000410      0.000004      0.000000
      0.000418      0.000004      0.000000
      0.000426      0.000004      0.000000
      0.000434      0.000004      0.000000
      0.000441      0.000004      0.000000
      0.000449      0.000004      0.000000
      0.000457      0.000004      0.000000
      0.000465      0.000004      0.000000
      0.000473      0.000004      0.000000
      0.000480      0.000004      0.000000
      0.000488      0.000004      0.000000
      0.000496      0.000004      0.000000
      0.000504      0.000004      0.000000
      0.000512      0.000004      0.000000
      0.000520      0.000004      0.000000
      0.000527      0.000004      0.000000
      0.000535      0.000004      0.000000
      0.000543      0.000004      0.000000
      0.000551      0.000004      0.000000
      0.000559      0.000004      0.000000
      0.000566      0.000004      0.000000
      0.000574      0.000004      0.000000
      0.000582      0.000004      0.000000
      0.000590      0.000004      0.000000
      0.000598      0.000004      0.000000
      0.000605      0.000004      0.000000
      0.000613      0.000004      0.000000
      0.000621      0.000004      0.000000
      0.000629      0.000004      0.000000
      0.000637      0.000004      0.000000
      0.000645      0.000004      0.000000
      0.000652      0.000004      0.000000
      0.000660      0.000004      0.000000
      0.000668      0.000004      0.000000
      0.000676      0.000004      0.000000
      0.000684      0.000004      0.000000
      0.000691      0.000004      0.000000
      0.000699      0.000004      0.000000
      0.000707      0.000004      0.000000
      0.000715      0.000004      0.000000
      0.000723      0.000004      0.000000
      0.000730      0.000004      0.000000
      0.000738      0.000004      0.000000
      0.000746      0.000004      0.000000
      0.000754      0.000004      0.000000
      0.000762      0.000004      0.000000
      0.000770      0.000004      0.000000
      0.000777      0.000004      0.000000
      0.000785      0.000004      0.000000
      0.000793      0.000004      0.000000
      0.000801      0.000004      0.000000
      0.000809      0.000004      0.000000
      0.000816      0.000004      0.000000
      0.000824      0.000004      0.000000
      0.000832      0.000004      0.000000
      0.000840      0.000004      0.000000
      0.000848      0.000004      0.000000
      0.000855      0.000004      0.000000
      0.000863      0.000004      0.000000
      0.000871      0.000004      0.000000
      0.000879      0.000004      0.000000
      0.000887      0.000004      0.000000
      0.000895      0.000004      0.000000
      0.000902      0.000004      0.000000
      0.000910      0.000004      0.000000
      0.000918      0.000004      0.000000
      0.000926      0.000004      0.000000
      0.000934      0.000004      0.000000
      0.000941      0.000004      0.000000
      0.000949      0.000004      0.000000
      0.000957      0.000004      0.000000
      0.000965      0.000004      0.000000
      0.000973      0.000004      0.000000
      0.000980      0.000004      0.000000
      0.000988      0.000004      0.000000
      0.000996      0.000004      0.000000
      0.000004      0.000012      0.000000
      0.000012      0.000012      0.000000
      0.000020      0.000012      0.000000
      0.000027      0.000012      0.000000
      0.000035      0.000012      0.000000
      0.000043      0.000012      0.000000
      0.000051      0.000012      0.000000
      0.000059      0.000012      0.000000
      0.000066      0.000012      0.000000
      0.000074      0.000012      0.000000
      0.000082      0.000012      0.000000
      0.000090      0.000012      0.000000
      0.000098      0.000012      0.000000
      0.000105      0.000012      0.000000
      0.000113      0.000012      0.000000
      0.000121      0.000012      0.000000
      0.000129      0.000012      0.000000
      0.000137      0.000012      0.000000
      0.000145      0.000012      0.000000
      0.000152      0.000012      0.000000
      0.000160      0.000012      0.000000
      0.000168      0.000012      0.000000
      0.000176      0.000012      0.000000
      0.000184      0.000012      0.000000
      0.000191      0.000012      0.000000
      0.000199      0.000012      0.000000
      0.000207      0.000012      0.000000
      0.000215      0.000012      0.000000
      0.000223      0.000012      0.000000
      0.000230      0.000012      0.000000
      0.000238      0.000012      0.000000
      0.000246      0.000012      0.000000
      0.000254      0.000012      0.000000
      0.000262      0.000012      0.000000
      0.000270      0.000012      0.000000
      0.000277      0.000012      0.000000
      0.000285      0.000012      0.000000
      0.000293      0.000012      0.000000
      0.000301      0.000012      0.000000
      0.000309      0.000012      0.000000
      0.000316      0.000012      0.000000
      0.000324      0.000012      0.000000
      0.000332      0.000012      0.000000
      0.000340      0.000012      0.000000
      0.000348      0.000012      0.000000
      0.000355      0.000012      0.000000
      0.000363      0.000012      0.000000
      0.000371      0.000012      0.000000
      0.000379      0.000012      0.000000
      0.000387      0.000012      0.000000
      0.000395      0.000012      0.000000
      0.000402      0.000012      0.000000
      0.000410      0.000012      0.000000
      0.000418      0.000012      0.000000
      0.000426      0.000012      0.000000
      0.000434      0.000012      0.000000
      0.000441      0.000012      0.000000
      0.000449      0.000012      0.000000
      0.000457      0.000012      0.000000
      0.000465      0.000012      0.000000
      0.000473      0.000012      0.000000
      0.000480      0.000012      0.000000
      0.000488      0.000012      0.000000
      0.000496      0.000012      0.000000
      0.000504      0.000012      0.000000
      0.000512      0.000012      0.000000
      0.000520      0.000012      0.000000
      0.000527      0.000012      0.000000
      0.000535      0.000012      0.000000
      0.000543      0.000012      0.000000
      0.000551      0.000012      0.000000
      0.000559      0.000012      0.000000
      0.000566      0.000012      0.000000
      0.000574      0.000012      0.000000
      0.000582      0.000012      0.000000
      0.000590      0.000012      0.000000
      0.000598      0.000012      0.000000
      0.000605      0.000012      0.000000
      0.000613      0.000012      0.000000
      0.000621      0.000012      0.000000
      0.000629      0.000012      0.000000
      0.000637      0.000012      0.000000
      0.000645      0.000012      0.000000
      0.000652      0.000012      0.000000
      0.000660      0.000012      0.000000
      0.000668      0.000012      0.000000
      0.000676      0.000012      0.000000
      0.000684      0.000012      0.000000
      0.000691      0.000012      0.000000
      0.000699      0.000012      0.000000
      0.000707      0.000012      0.000000
      0.000715      0.000012      0.000000
      0.000723      0.000012      0.000000
      0.000730      0.000012      0.000000
      0.000738      0.000012      0.000000
      0.000746      0.000012      0.000000
      0.000754      0.000012      0.000000
      0.000762      0.000012      0.000000
      0.000770      0.000012      0.000000
      0.000777      0.000012      0.000000
      0.000785      0.000012      0.000000
[...]
POINT_DATA 16384
SCALARS rhoe double
LOOKUP_TABLE default
 0.916234E-013
 0.912592E-013
 0.915382E-013
 0.915628E-013
 0.916718E-013
 0.917565E-013
 0.918469E-013
 0.919358E-013
 0.920247E-013
 0.921133E-013
 0.922016E-013
 0.922896E-013
 0.923774E-013
 0.924648E-013
 0.925519E-013
 0.926386E-013
 0.927249E-013
 0.928109E-013
 0.928964E-013
 0.929814E-013
 0.930660E-013
 0.931500E-013
 0.932335E-013
 0.933163E-013
 0.933985E-013
 0.934800E-013
 0.935608E-013
 0.936407E-013
 0.937198E-013
 0.937980E-013
 0.938752E-013
 0.939513E-013
 0.940264E-013
 0.941002E-013
 0.941728E-013
 0.942440E-013
 0.943138E-013
 0.943822E-013
 0.944489E-013
 0.945141E-013
 0.945774E-013
 0.946390E-013
 0.946986E-013
 0.947563E-013
 0.948119E-013
 0.948653E-013
 0.949165E-013
 0.949653E-013
 0.950118E-013
 0.950558E-013
 0.950972E-013
 0.951360E-013
 0.951721E-013
 0.952054E-013
 0.952359E-013
 0.952635E-013
 0.952882E-013
 0.953099E-013
 0.953286E-013
 0.953442E-013
 0.953568E-013
 0.953662E-013
 0.953725E-013
 0.953757E-013
 0.953757E-013
 0.953725E-013
 0.953662E-013
 0.953568E-013
 0.953443E-013
 0.953286E-013
 0.953099E-013
 0.952882E-013
 0.952635E-013
 0.952359E-013
 0.952054E-013
 0.951721E-013
 0.951360E-013
 0.950972E-013
 0.950558E-013
 0.950118E-013
 0.949654E-013
 0.949165E-013
 0.948653E-013
 0.948119E-013
 0.947563E-013
 0.946987E-013
 0.946390E-013
 0.945775E-013
 0.945141E-013
 0.944490E-013
 0.943822E-013
 0.943139E-013
 0.942440E-013
 0.941728E-013
 0.941002E-013
 0.940264E-013
 0.939514E-013
 0.938752E-013
 0.937980E-013
 0.937199E-013
 0.936408E-013
 0.935608E-013
 0.934801E-013
 0.933986E-013
 0.933164E-013
 0.932335E-013
 0.931500E-013
 0.930660E-013
 0.929815E-013
 0.928964E-013
 0.928109E-013
 0.927249E-013
 0.926386E-013
 0.925519E-013
 0.924648E-013
 0.923774E-013
 0.922897E-013
 0.922016E-013
 0.921133E-013
 0.920247E-013
 0.919358E-013
 0.918469E-013
 0.917565E-013
 0.916718E-013
 0.915628E-013
 0.915382E-013
 0.912593E-013
 0.916234E-013
 0.912592E-013
 0.907903E-013
 0.909456E-013
 0.908118E-013
 0.907855E-013
 0.907263E-013
 0.906758E-013
 0.906236E-013
 0.905719E-013
 0.905202E-013
 0.904687E-013
 0.904175E-013
 0.903663E-013
 0.903154E-013
 0.902647E-013
 0.902142E-013
 0.901639E-013
 0.901138E-013
 0.900640E-013
 0.900144E-013
 0.899652E-013
 0.899162E-013
 0.898676E-013
 0.898193E-013
 0.897714E-013
 0.897239E-013
 0.896768E-013
 0.896302E-013
 0.895841E-013
 0.895385E-013
 0.894935E-013
 0.894491E-013
 0.894054E-013
 0.893623E-013
 0.893200E-013
 0.892784E-013
 0.892377E-013
 0.891978E-013
 0.891588E-013
 0.891208E-013
 0.890839E-013
 0.890479E-013
 0.890131E-013
 0.889795E-013
 0.889470E-013
 0.889158E-013
 0.888859E-013
 0.888574E-013
 0.888303E-013
 0.888046E-013
 0.887804E-013
 0.887577E-013
 0.887367E-013
 0.887172E-013
 0.886994E-013
 0.886832E-013
 0.886688E-013
 0.886561E-013
 0.886452E-013
 0.886361E-013
 0.886287E-013
 0.886232E-013
 0.886195E-013
 0.886177E-013
 0.886177E-013
 0.886195E-013
 0.886232E-013
 0.886287E-013
 0.886361E-013
 0.886452E-013
 0.886561E-013
 0.886688E-013
 0.886832E-013
 0.886994E-013
 0.887172E-013
 0.887367E-013
 0.887578E-013
 0.887804E-013
 0.888046E-013
 0.888303E-013
 0.888574E-013
 0.888860E-013
 0.889158E-013
 0.889470E-013
 0.889795E-013
 0.890132E-013
 0.890480E-013
 0.890839E-013
 0.891209E-013
 0.891589E-013
 0.891978E-013
 0.892377E-013
 0.892785E-013
 0.893200E-013
 0.893624E-013
 0.894054E-013
 0.894492E-013
 0.894936E-013
 0.895386E-013
 0.895841E-013
 0.896302E-013
 0.896769E-013
 0.897239E-013
 0.897714E-013
 0.898193E-013
 0.898676E-013
 0.899162E-013
 0.899652E-013
 0.900145E-013
 0.900640E-013
 0.901138E-013
 0.901639E-013
 0.902142E-013
 0.902647E-013
 0.903155E-013
 0.903664E-013
 0.904175E-013
 0.904688E-013
 0.905202E-013
 0.905719E-013
 0.906236E-013
 0.906758E-013
 0.907263E-013
 0.907855E-013
 0.908118E-013
 0.909456E-013
 0.907904E-013
 0.912593E-013
 0.915382E-013
 0.909456E-013
 0.912672E-013
 0.911742E-013
 0.912341E-013
 0.912470E-013
 0.912721E-013
 0.912943E-013
 0.913170E-013
 0.913396E-013
 0.913621E-013
 0.913845E-013
 0.914069E-013
 0.914291E-013
 0.914513E-013
 0.914734E-013
 0.914953E-013
 0.915172E-013
 0.915390E-013
 0.915606E-013
 0.915821E-013
 0.916035E-013
 0.916247E-013
 0.916458E-013
 0.916667E-013
 0.916874E-013
 0.917080E-013
 0.917283E-013
 0.917484E-013
 0.917683E-013
 0.917880E-013
 0.918073E-013
 0.918264E-013
 0.918452E-013
 0.918637E-013
 0.918818E-013
 0.918996E-013
 0.919170E-013
 0.919340E-013
 0.919505E-013
 0.919667E-013
 0.919823E-013
 0.919975E-013
 0.920122E-013
 0.920264E-013
 0.920400E-013
 0.920530E-013
 0.920654E-013
 0.920773E-013
 0.920885E-013
 0.920990E-013
 0.921089E-013
 0.921181E-013
 0.921266E-013
 0.921343E-013
 0.921414E-013
 0.921477E-013
 0.921532E-013
 0.921580E-013
 0.921619E-013
 0.921651E-013
 0.921675E-013
 0.921691E-013
 0.921699E-013
 0.921699E-013
 0.921691E-013
 0.921675E-013
 0.921651E-013
 0.921619E-013
 0.921579E-013
 0.921532E-013
 0.921476E-013
 0.921414E-013
 0.921343E-013
 0.921265E-013
 0.921181E-013
 0.921089E-013
 0.920990E-013
 0.920884E-013
 0.920772E-013
 0.920654E-013
 0.920530E-013
 0.920399E-013
 0.920263E-013
 0.920122E-013
 0.919975E-013
 0.919823E-013
 0.919666E-013
 0.919505E-013
 0.919339E-013
 0.919169E-013
 0.918995E-013
 0.918818E-013
 0.918636E-013
 0.918452E-013
 0.918264E-013
 0.918073E-013
 0.917879E-013
 0.917683E-013
 0.917484E-013
 0.917283E-013
 0.917079E-013
 0.916874E-013
 0.916667E-013
 0.916458E-013
 0.916247E-013
 0.916035E-013
 0.915821E-013
 0.915606E-013
 0.915389E-013
 0.915172E-013
 0.914953E-013
 0.914733E-013
 0.914513E-013
 0.914291E-013
 0.914068E-013
 0.913845E-013
 0.913621E-013
 0.913396E-013
 0.913170E-013
 0.912943E-013
 0.912721E-013
 0.912470E-013
 0.912341E-013
 0.911742E-013
 0.912672E-013
 0.909456E-013
 0.915382E-013
 0.915628E-013
 0.908118E-013
 0.911742E-013
 0.910203E-013
 0.910594E-013
 0.910387E-013
 0.910338E-013
 0.910253E-013
 0.910176E-013
 0.910098E-013
 0.910020E-013
 0.909942E-013
 0.909865E-013
 0.909788E-013
 0.909711E-013
 0.909634E-013
 0.909558E-013
 0.909482E-013
 0.909407E-013
 0.909332E-013
 0.909258E-013
 0.909183E-013
 0.909110E-013
 0.909037E-013
 0.908964E-013
 0.908893E-013
 0.908821E-013
 0.908751E-013
 0.908681E-013
 0.908612E-013
 0.908544E-013
 0.908477E-013
 0.908411E-013
 0.908346E-013
 0.908282E-013
 0.908219E-013
 0.908158E-013
 0.908097E-013
 0.908038E-013
 0.907981E-013
 0.907925E-013
 0.907871E-013
 0.907818E-013
 0.907767E-013
 0.907718E-013
 0.907671E-013
 0.907626E-013
 0.907583E-013
 0.907542E-013
 0.907503E-013
 0.907467E-013
 0.907433E-013
 0.907401E-013
 0.907371E-013
 0.907344E-013
 0.907320E-013
 0.907298E-013
 0.907279E-013
 0.907263E-013
 0.907249E-013
 0.907238E-013
 0.907230E-013
 0.907224E-013
 0.907221E-013
 0.907221E-013
 0.907224E-013
 0.907230E-013
 0.907238E-013
 0.907249E-013
 0.907263E-013
 0.907279E-013
 0.907298E-013
 0.907320E-013
 0.907345E-013
 0.907371E-013
 0.907401E-013
 0.907433E-013
 0.907467E-013
 0.907503E-013
 0.907542E-013
 0.907583E-013
 0.907626E-013
 0.907671E-013
 0.907719E-013
 0.907768E-013
 0.907818E-013
 0.907871E-013
 0.907925E-013
 0.907981E-013
 0.908039E-013
 0.908098E-013
 0.908158E-013
 0.908219E-013
 0.908282E-013
 0.908346E-013
 0.908411E-013
 0.908477E-013
 0.908544E-013
 0.908613E-013
 0.908681E-013
 0.908751E-013
 0.908822E-013
 0.908893E-013
 0.908965E-013
 0.909037E-013
 0.909110E-013
 0.909184E-013
 0.909258E-013
 0.909332E-013
 0.909407E-013
 0.909483E-013
 0.909558E-013
 0.909635E-013
 0.909711E-013
 0.909788E-013
 0.909865E-013
 0.909942E-013
 0.910020E-013
 0.910098E-013
 0.910176E-013
 0.910254E-013
 0.910338E-013
 0.910388E-013
 0.910594E-013
 0.910203E-013
 0.911742E-013
 0.908118E-013
 0.915628E-013
 0.916718E-013
 0.907855E-013
 0.912341E-013
 0.910594E-013
 0.911190E-013
 0.911057E-013
 0.911115E-013
 0.911130E-013
 0.911154E-013
 0.911176E-013
 0.911199E-013
 0.911221E-013
 0.911243E-013
 0.911265E-013
 0.911287E-013
 0.911309E-013
 0.911331E-013
 0.911352E-013
 0.911374E-013
 0.911395E-013
 0.911417E-013
 0.911438E-013
 0.911459E-013
 0.911480E-013
 0.911500E-013
 0.911521E-013
 0.911541E-013
 0.911561E-013
 0.911581E-013
 0.911601E-013
 0.911620E-013
 0.911640E-013
 0.911659E-013
 0.911677E-013
 0.911696E-013
 0.911713E-013
 0.911731E-013
 0.911748E-013
 0.911765E-013
 0.911782E-013
 0.911798E-013
 0.911813E-013
 0.911828E-013
 0.911843E-013
 0.911857E-013
 0.911870E-013
 0.911883E-013
 0.911896E-013
 0.911907E-013
 0.911918E-013
 0.911929E-013
 0.911939E-013
 0.911948E-013
 0.911956E-013
 0.911964E-013
 0.911971E-013
 0.911977E-013
 0.911983E-013
 0.911987E-013
 0.911991E-013
 0.911995E-013
 0.911997E-013
 0.911998E-013
 0.911999E-013
 0.911999E-013
 0.911998E-013
 0.911997E-013
 0.911995E-013
 0.911991E-013
 0.911987E-013
 0.911983E-013
 0.911977E-013
 0.911971E-013
 0.911964E-013
 0.911956E-013
 0.911948E-013
 0.911939E-013
 0.911929E-013
 0.911918E-013
 0.911907E-013
 0.911896E-013
 0.911883E-013
 0.911870E-013
 0.911857E-013
 0.911843E-013
 0.911828E-013
 0.911813E-013
 0.911798E-013
 0.911782E-013
 0.911765E-013
 0.911748E-013
 0.911731E-013
 0.911713E-013
 0.911695E-013
 0.911677E-013
 0.911659E-013
 0.911640E-013
 0.911620E-013
 0.911601E-013
 0.911581E-013
 0.911561E-013
 0.911541E-013
 0.911521E-013
 0.911500E-013
 0.911480E-013
 0.911459E-013
 0.911438E-013
 0.911417E-013
 0.911395E-013
 0.911374E-013
 0.911352E-013
 0.911331E-013
 0.911309E-013
 0.911287E-013
 0.911265E-013
 0.911243E-013
 0.911221E-013
 0.911199E-013
 0.911176E-013
 0.911154E-013
 0.911130E-013
 0.911115E-013
 0.911056E-013
 0.911190E-013
 0.910594E-013
 0.912341E-013
 0.907855E-013
 0.916718E-013
 0.917565E-013
 0.907263E-013
 0.912470E-013
 0.910387E-013
 0.911057E-013
 0.910867E-013
 0.910905E-013
 0.910890E-013
 0.910887E-013
 0.910881E-013
 0.910876E-013
 0.910870E-013
 0.910865E-013
 0.910859E-013
 0.910854E-013
 0.910849E-013
 0.910844E-013
 0.910838E-013
 0.910833E-013
 0.910828E-013
 0.910823E-013
 0.910818E-013
 0.910813E-013
 0.910808E-013
 0.910803E-013
 0.910798E-013
 0.910793E-013
 0.910788E-013
 0.910783E-013
 0.910778E-013
 0.910774E-013
 0.910769E-013
 0.910764E-013
 0.910760E-013
 0.910755E-013
 0.910751E-013
 0.910747E-013
 0.910743E-013
 0.910739E-013
 0.910735E-013
 0.910731E-013
 0.910727E-013
 0.910724E-013
 0.910720E-013
 0.910717E-013
 0.910714E-013
 0.910711E-013
 0.910708E-013
 0.910705E-013
 0.910702E-013
 0.910700E-013
 0.910697E-013
 0.910695E-013
 0.910693E-013
 0.910691E-013
 0.910690E-013
 0.910688E-013
 0.910687E-013
 0.910686E-013
 0.910685E-013
 0.910684E-013
 0.910684E-013
 0.910683E-013
 0.910683E-013
 0.910683E-013
 0.910683E-013
 0.910684E-013
 0.910684E-013
 0.910685E-013
 0.910686E-013
 0.910687E-013
 0.910688E-013
 0.910690E-013
 0.910691E-013
 0.910693E-013
 0.910695E-013
 0.910697E-013
 0.910700E-013
 0.910702E-013
 0.910705E-013
 0.910708E-013
 0.910711E-013
 0.910714E-013
 0.910717E-013
 0.910720E-013
 0.910724E-013
 0.910727E-013
 0.910731E-013
 0.910735E-013
 0.910739E-013
 0.910743E-013
 0.910747E-013
 0.910751E-013
 0.910756E-013
 0.910760E-013
 0.910764E-013
 0.910769E-013
 0.910774E-013
 0.910778E-013
 0.910783E-013
 0.910788E-013
 0.910793E-013
 0.910798E-013
 0.910803E-013
 0.910808E-013
 0.910813E-013
 0.910818E-013
 0.910823E-013
 0.910828E-013
 0.910833E-013
 0.910838E-013
 0.910844E-013
 0.910849E-013
 0.910854E-013
 0.910859E-013
 0.910865E-013
 0.910870E-013
 0.910876E-013
 0.910881E-013
 0.910887E-013
 0.910890E-013
 0.910905E-013
 0.910867E-013
 0.911056E-013
 0.910388E-013
 0.912470E-013
 0.907263E-013
 0.917565E-013
 0.918469E-013
 0.906758E-013
 0.912721E-013
 0.910338E-013
 0.911115E-013
 0.910905E-013
 0.910955E-013
 0.910946E-013
 0.910949E-013
 0.910950E-013
 0.910951E-013
 0.910953E-013
 0.910954E-013
 0.910955E-013
 0.910956E-013
 0.910957E-013
 0.910958E-013
 0.910959E-013
 0.910960E-013
 0.910962E-013
 0.910963E-013
 0.910964E-013
 0.910965E-013
 0.910966E-013
 0.910967E-013
 0.910968E-013
 0.910969E-013
 0.910970E-013
 0.910971E-013
 0.910972E-013
 0.910973E-013
 0.910974E-013
 0.910975E-013
 0.910976E-013
 0.910977E-013
 0.910978E-013
 0.910979E-013
 0.910980E-013
 0.910981E-013
 0.910982E-013
 0.910983E-013
 0.910983E-013
 0.910984E-013
 0.910985E-013
 0.910986E-013
 0.910986E-013
 0.910987E-013
 0.910988E-013
 0.910988E-013
 0.910989E-013
 0.910990E-013
 0.910990E-013
 0.910991E-013
 0.910991E-013
 0.910992E-013
 0.910992E-013
 0.910992E-013
 0.910993E-013
 0.910993E-013
 0.910993E-013
 0.910993E-013
 0.910993E-013
 0.910994E-013
 0.910994E-013
 0.910994E-013
 0.910994E-013
 0.910993E-013
 0.910993E-013
 0.910993E-013
 0.910993E-013
 0.910993E-013
 0.910992E-013
 0.910992E-013
 0.910992E-013
 0.910991E-013
 0.910991E-013
 0.910990E-013
 0.910990E-013
 0.910989E-013
 0.910988E-013
 0.910988E-013
 0.910987E-013
 0.910986E-013
 0.910986E-013
 0.910985E-013
 0.910984E-013
 0.910983E-013
 0.910983E-013
 0.910982E-013
 0.910981E-013
 0.910980E-013
 0.910979E-013
 0.910978E-013
 0.910977E-013
 0.910976E-013
 0.910975E-013
 0.910974E-013
 0.910973E-013
 0.910972E-013
 0.910971E-013
 0.910970E-013
 0.910969E-013
 0.910968E-013
 0.910967E-013
 0.910966E-013
 0.910965E-013
 0.910964E-013
 0.910963E-013
 0.910962E-013
 0.910960E-013
 0.910959E-013
 0.910958E-013
 0.910957E-013
 0.910956E-013
 0.910955E-013
 0.910954E-013
 0.910953E-013
 0.910951E-013
 0.910950E-013
 0.910949E-013
 0.910946E-013
 0.910956E-013
 0.910905E-013
 0.911115E-013
 0.910338E-013
 0.912721E-013
 0.906758E-013
 0.918469E-013
 0.919358E-013
 0.906236E-013
 0.912943E-013
 0.910253E-013
 0.911130E-013
 0.910890E-013
 0.910946E-013
 0.910935E-013
 0.910937E-013
 0.910936E-013
 0.910936E-013
 0.910936E-013
 0.910935E-013
 0.910935E-013
 0.910935E-013
 0.910935E-013
 0.910935E-013
 0.910934E-013
 0.910934E-013
 0.910934E-013
 0.910934E-013
 0.910934E-013
 0.910934E-013
 0.910933E-013
 0.910933E-013
 0.910933E-013
 0.910933E-013
 0.910933E-013
 0.910932E-013
 0.910932E-013
 0.910932E-013
 0.910932E-013
 0.910932E-013
 0.910932E-013
 0.910932E-013
 0.910931E-013
 0.910931E-013
 0.910931E-013
 0.910931E-013
 0.910931E-013
 0.910931E-013
 0.910931E-013
 0.910931E-013
 0.910931E-013
 0.910931E-013
 0.910931E-013
 0.910930E-013
 0.910930E-013
 0.910930E-013
 0.910930E-013
 0.910930E-013
 0.910930E-013
 0.910930E-013
 0.910930E-013
 0.910930E-013
 0.910930E-013
 0.910930E-013
 0.910930E-013
 0.910930E-013
 0.910930E-013
 0.910930E-013
 0.910930E-013
 0.910930E-013
 0.910930E-013
 0.910930E-013
 0.910930E-013
 0.910930E-013
 0.910930E-013
 0.910930E-013
 0.910930E-013
 0.910930E-013
 0.910930E-013
 0.910930E-013
 0.910930E-013
 0.910930E-013
 0.910930E-013
 0.910930E-013
 0.910930E-013
 0.910930E-013
 0.910930E-013
 0.910930E-013
 0.910930E-013
 0.910931E-013
 0.910931E-013
 0.910931E-013
 0.910931E-013
 0.910931E-013
 0.910931E-013
 0.910931E-013
 0.910931E-013
 0.910931E-013
 0.910931E-013
 0.910931E-013
 0.910932E-013
 0.910932E-013
 0.910932E-013
 0.910932E-013
 0.910932E-013
 0.910932E-013
 0.910932E-013
 0.910933E-013
 0.910933E-013
 0.910933E-013
 0.910933E-013
 0.910933E-013
 0.910934E-013
 0.910934E-013
 0.910934E-013
 0.910934E-013
 0.910934E-013
 0.910934E-013
 0.910935E-013
 0.910935E-013
 0.910935E-013
 0.910935E-013
 0.910935E-013
 0.910936E-013
 0.910936E-013
 0.910936E-013
 0.910937E-013
 0.910935E-013
 0.910946E-013
 0.910890E-013
 0.911130E-013
 0.910254E-013
 0.912943E-013
 0.906236E-013
 0.919358E-013
 0.920247E-013
 0.905719E-013
 0.913170E-013
 0.910176E-013
 0.911154E-013
 0.910887E-013
 0.910949E-013
 0.910937E-013
 0.910939E-013
 0.910939E-013
 0.910939E-013
 0.910939E-013
 0.910939E-013
 0.910939E-013
 0.910939E-013
 0.910939E-013
 0.910939E-013
 0.910939E-013
 0.910939E-013
 0.910939E-013
 0.910939E-013
 0.910939E-013
 0.910939E-013
 0.910939E-013
 0.910939E-013
 0.910939E-013
 0.910939E-013
 0.910940E-013
 0.910940E-013
 0.910940E-013
 0.910940E-013
 0.910940E-013
 0.910940E-013
 0.910940E-013
 0.910940E-013
 0.910940E-013
 0.910940E-013
 0.910940E-013
 0.910940E-013
 0.910940E-013
 0.910940E-013
 0.910941E-013
 0.910941E-013
 0.910941E-013
 0.910941E-013
 0.910941E-013
 0.910941E-013
 0.910941E-013
 0.910941E-013
 0.910941E-013
 0.910941E-013
 0.910941E-013
 0.910941E-013
 0.910942E-013
 0.910942E-013
 0.910942E-013
 0.910942E-013
 0.910942E-013
 0.910942E-013
 0.910942E-013
 0.910942E-013
 0.910942E-013
 0.910942E-013
 0.910942E-013
 0.910942E-013
 0.910942E-013
 0.910942E-013
 0.910942E-013
 0.910942E-013
 0.910942E-013
 0.910942E-013
 0.910942E-013
 0.910942E-013
 0.910942E-013
 0.910942E-013
 0.910941E-013
 0.910941E-013
 0.910941E-013
 0.910941E-013
 0.910941E-013
 0.910941E-013
 0.910941E-013
 0.910941E-013
 0.910941E-013
 0.910941E-013
 0.910941E-013
 0.910941E-013
 0.910940E-013
 0.910940E-013
 0.910940E-013
 0.910940E-013
 0.910940E-013
 0.910940E-013
 0.910940E-013
 0.910940E-013
 0.910940E-013
 0.910940E-013
 0.910940E-013
 0.910940E-013
 0.910940E-013
 0.910940E-013
 0.910939E-013
 0.910939E-013
 0.910939E-013
 0.910939E-013
 0.910939E-013
 0.910939E-013
 0.910939E-013
 0.910939E-013
 0.910939E-013
 0.910939E-013
 0.910939E-013
 0.910939E-013
 0.910939E-013
 0.910939E-013
 0.910939E-013
 0.910939E-013
 0.910939E-013
 0.910939E-013
 0.910939E-013
 0.910937E-013
 0.910949E-013
 0.910887E-013
 0.911154E-013
 0.910176E-013
 0.913170E-013
 0.905719E-013
 0.920247E-013
 0.921133E-013
 0.905202E-013
 0.913396E-013
 0.910098E-013
 0.911176E-013
 0.910881E-013
 0.910950E-013
 0.910936E-013
 0.910939E-013
 0.910938E-013
 0.910938E-013
 0.910938E-013
 0.910938E-013
 0.910938E-013
 0.910938E-013
 0.910938E-013
 0.910938E-013
 0.910938E-013
 0.910938E-013
 0.910938E-013
 0.910938E-013
 0.910938E-013
 0.910938E-013
 0.910938E-013
 0.910938E-013
 0.910938E-013
 0.910938E-013
 0.910938E-013
 0.910938E-013
 0.910939E-013
 0.910939E-013
 0.910939E-013
 0.910939E-013
 0.910939E-013
 0.910939E-013
 0.910939E-013
 0.910939E-013
 0.910939E-013
 0.910939E-013
 0.910939E-013
 0.910939E-013
 0.910939E-013
 0.910939E-013
 0.910939E-013
 0.910939E-013
 0.910939E-013
 0.910940E-013
 0.910940E-013
 0.910940E-013
 0.910940E-013
 0.910940E-013
 0.910940E-013
 0.910940E-013
 0.910940E-013
 0.910940E-013
 0.910940E-013
 0.910940E-013
 0.910940E-013
 0.910940E-013
 0.910940E-013
 0.910940E-013
 0.910940E-013
 0.910940E-013
 0.910940E-013
 0.910940E-013
 0.910940E-013
 0.910940E-013
 0.910940E-013
 0.910940E-013
 0.910940E-013
 0.910940E-013
 0.910940E-013
 0.910940E-013
 0.910940E-013
 0.910940E-013
 0.910940E-013
 0.910940E-013
 0.910940E-013
 0.910940E-013
 0.910940E-013
 0.910940E-013
 0.910940E-013
 0.910939E-013
 0.910939E-013
 0.910939E-013
 0.910939E-013
 0.910939E-013
 0.910939E-013
 0.910939E-013
 0.910939E-013
 0.910939E-013
 0.910939E-013
 0.910939E-013
 0.910939E-013
 0.910939E-013
 0.910939E-013
 0.910939E-013
 0.910939E-013
 0.910939E-013
 0.910938E-013
 0.910938E-013
 0.910938E-013
 0.910938E-013
 0.910938E-013
 0.910938E-013
 0.910938E-013
 0.910938E-013
 0.910938E-013
 0.910938E-013
 0.910938E-013
 0.910938E-013
 0.910938E-013
 0.910938E-013
 0.910938E-013
 0.910938E-013
 0.910938E-013
 0.910938E-013
 0.910938E-013
 0.910938E-013
 0.910939E-013
 0.910936E-013
 0.910950E-013
 0.910881E-013
 0.911176E-013
 0.910098E-013
 0.913396E-013
 0.905203E-013
 0.921133E-013
 0.922016E-013
 0.904687E-013
 0.913621E-013
 0.910020E-013
 0.911199E-013
 0.910876E-013
 0.910951E-013
 0.910936E-013
 0.910939E-013
 0.910938E-013
 0.910938E-013
 0.910938E-013
 0.910938E-013
 0.910938E-013
 0.910938E-013
 0.910938E-013
 0.910938E-013
 0.910938E-013
 0.910938E-013
 0.910938E-013
 0.910938E-013
 0.910938E-013
 0.910938E-013
 0.910939E-013
 0.910939E-013
 0.910939E-013
 0.910939E-013
 0.910939E-013
 0.910939E-013
 0.910939E-013
 0.910939E-013
 0.910939E-013
 0.910939E-013
 0.910939E-013
 0.910939E-013
 0.910939E-013
 0.910939E-013
 0.910939E-013
 0.910939E-013
 0.910939E-013
 0.910939E-013
 0.910940E-013
 0.910940E-013
 0.910940E-013
 0.910940E-013
 0.910940E-013
 0.910940E-013
 0.910940E-013
 0.910940E-013