# vtk DataFile Version 3.0
Solution data
ASCII
DATASET STRUCTURED_GRID
DIMENSIONS 128 128 1
POINTS 16384  double
      0.000004      0.000004      0.000000
      0.000012      0.000004      0.000000
      0.000020      0.000004      0.000000
      0.000027      0.000004      0.000000
      0.000035      0.000004      0.000000
      0.000043      0.000004      0.000000
      0.000051      0.000004      0.000000
      0.000059      0.000004      0.000000
      0.000066      0.000004      0.000000
      0.000074      0.000004      0.000000
      0.000082      0.000004      0.000000
      0.000090      0.000004      0.000000
      0.000098      0.000004      0.000000
      0.000105      0.000004      0.000000
      0.000113      0.000004      0.000000
      0.000121      0.000004      0.000000
      0.000129      0.000004      0.000000
      0.000137      0.000004      0.000000
      0.000145      0.000004      0.000000
      0.000152      0.000004      0.000000
      0.000160      0.000004      0.000000
      0.000168      0.000004      0.000000
      0.000176      0.000004      0.000000
      0.000184      0.000004      0.000000
      0.000191      0.000004      0.000000
      0.000199      0.000004      0.000000
      0.000207      0.000004      0.000000
      0.000215      0.000004      0.000000
      0.000223      0.000004      0.000000
      0.000230      0.000004      0.000000
      0.000238      0.000004      0.000000
      0.000246      0.000004      0.000000
      0.000254      0.000004      0.000000
      0.000262      0.000004      0.000000
      0.000270      0.000004      0.000000
      0.000277      0.000004      0.000000
      0.000285      0.000004      0.000000
      0.000293      0.000004      0.000000
      0.000301      0.000004      0.000000
      0.000309      0.000004      0.000000
      0.000316      0.000004      0.000000
      0.000324      0.000004      0.000000
      0.000332      0.000004      0.000000
      0.000340      0.000004      0.000000
      0.000348      0.000004      0.000000
      0.000355      0.000004      0.000000
      0.000363      0.000004      0.000000
      0.000371      0.000004      0.000000
      0.000379      0.000004      0.000000
      0.000387      0.000004      0.000000
      0.000395      0.000004      0.000000
      0.000402      0.000004      0.000000
      0.000410      0.000004      0.000000
      0.000418      0.000004      0.000000
      0.000426      0.000004      0.000000
      0.000434      0.000004      0.000000
      0.000441      0.000004      0.000000
      0.000449      0.000004      0.000000
      0.000457      0.000004      0.000000
      0.000465      0.000004      0.000000
      0.000473      0.000004      0.000000
      0.000480      0.000004      0.000000
      0.000488      0.000004      0.000000
      0.000496      0.000004      0.000000
      0.000504      0.000004      0.000000
      0.000512      0.000004      0.000000
      0.000520      0.000004      0.000000
      0.000527      0.000004      0.000000
      0.000535      0.000004      0.000000
      0.000543      0.000004      0.000000
      0.000551      0.000004      0.000000
      0.000559      0.000004      0.000000
      0.000566      0.000004      0.000000
      0.000574      0.000004      0.000000
      0.000582      0.000004      0.000000
      0.000590      0.000004      0.000000
      0.000598      0.000004      0.000000
      0.000605      0.000004      0.000000
      0.000613      0.000004      0.000000
      0.000621      0.000004      0.000000
      0.000629      0.000004      0.000000
      0.000637      0.000004      0.000000
      0.000645      0.000004      0.000000
      0.000652      0.000004      0.000000
      0.000660      0.000004      0.000000
      0.000668      0.000004      0.000000
      0.000676      0.000004      0.000000
      0.000684      0.000004      0.000000
      0.000691      0.000004      0.000000
      0.000699      0.000004      0.000000
      0.000707      0.000004      0.000000
      0.000715      0.000004      0.000000
      0.000723      0.000004      0.000000
      0.000730      0.000004      0.000000
      0.000738      0.000004      0.000000
      0.000746      0.000004      0.000000
      0.000754      0.000004      0.000000
      0.000762      0.000004      0.000000
      0.000770      0.000004      0.000000
      0.000777      0.000004      0.000000
      0.000785      0.000004      0.000000
      0.000793      0.000004      0.000000
      0.000801      0.000004      0.000000
      0.000809      0.000004      0.000000
      0.000816      0.000004      0.000000
      0.000824      0.000004      0.000000
      0.000832      0.000004      0.000000
      0.000840      0.000004      0.000000
      0.000848      0.000004      0.000000
      0.000855      0.000004      0.000000
      0.000863      0.000004      0.000000
      0.000871      0.000004      0.000000
      0.000879      0.000004      0.000000
      0.000887      0.000004      0.000000
      0.000895      0.000004      0.000000
      0.000902      0.000004      0.000000
      0.000910      0.000004      0.000000
      0.000918      0.000004      0.000000
      0.000926      0.000004      0.000000
      0.000934      0.000004      0.000000
      0.000941      0.000004      0.000000
      0.000949      0.000004      0.000000
      0.000957      0.000004      0.000000
      0.000965      0.000004      0.000000
      0.000973      0.000004      0.000000
      0.000980      0.000004      0.000000
      0.000988      0.000004      0.000000
      0.000996      0.000004      0.000000
      0.000004      0.000012      0.000000
      0.000012      0.000012      0.000000
      0.000020      0.000012      0.000000
      0.000027      0.000012      0.000000
      0.000035      0.000012      0.000000
      0.000043      0.000012      0.000000
      0.000051      0.000012      0.000000
      0.000059      0.000012      0.000000
      0.000066      0.000012      0.000000
      0.000074      0.000012      0.000000
      0.000082      0.000012      0.000000
      0.000090      0.000012      0.000000
      0.000098      0.000012      0.000000
      0.000105      0.000012      0.000000
      0.000113      0.000012      0.000000
      0.000121      0.000012      0.000000
      0.000129      0.000012      0.000000
      0.000137      0.000012      0.000000
      0.000145      0.000012      0.000000
      0.000152      0.000012      0.000000
      0.000160      0.000012      0.000000
      0.000168      0.000012      0.000000
      0.000176      0.000012      0.000000
      0.000184      0.000012      0.000000
      0.000191      0.000012      0.000000
      0.000199      0.000012      0.000000
      0.000207      0.000012      0.000000
      0.000215      0.000012      0.000000
      0.000223      0.000012      0.000000
      0.000230      0.000012      0.000000
      0.000238      0.000012      0.000000
      0.000246      0.000012      0.000000
      0.000254      0.000012      0.000000
      0.000262      0.000012      0.000000
      0.000270      0.000012      0.000000
      0.000277      0.000012      0.000000
      0.000285      0.000012      0.000000
      0.000293      0.000012      0.000000
      0.000301      0.000012      0.000000
      0.000309      0.000012      0.000000
      0.000316      0.000012      0.000000
      0.000324      0.000012      0.000000
      0.000332      0.000012      0.000000
      0.000340      0.000012      0.000000
      0.000348      0.000012      0.000000
      0.000355      0.000012      0.000000
      0.000363      0.000012      0.000000
      0.000371      0.000012      0.000000
      0.000379      0.000012      0.000000
      0.000387      0.000012      0.000000
      0.000395      0.000012      0.000000
      0.000402      0.000012      0.000000
      0.000410      0.000012      0.000000
      0.000418      0.000012      0.000000
      0.000426      0.000012      0.000000
      0.000434      0.000012      0.000000
      0.000441      0.000012      0.000000
      0.000449      0.000012      0.000000
      0.000457      0.000012      0.000000
      0.000465      0.000012      0.000000
      0.000473      0.000012      0.000000
      0.000480      0.000012      0.000000
      0.000488      0.000012      0.000000
      0.000496      0.000012      0.000000
      0.000504      0.000012      0.000000
      0.000512      0.000012      0.000000
      0.000520      0.000012      0.000000
      0.000527      0.000012      0.000000
      0.000535      0.000012      0.000000
      0.000543      0.000012      0.000000
      0.000551      0.000012      0.000000
      0.000559      0.000012      0.000000
      0.000566      0.000012      0.000000
      0.000574      0.000012      0.000000
      0.000582      0.000012      0.000000
      0.000590      0.000012      0.000000
      0.000598      0.000012      0.000000
      0.000605      0.000012      0.000000
      0.000613      0.000012      0.000000
      0.000621      0.000012      0.000000
      0.000629      0.000012      0.000000
      0.000637      0.000012      0.000000
      0.000645      0.000012      0.000000
      0.000652      0.000012      0.000000
      0.000660      0.000012      0.000000
      0.000668      0.000012      0.000000
      0.000676      0.000012      0.000000
      0.000684      0.000012      0.000000
      0.000691      0.000012      0.000000
      0.000699      0.000012      0.000000
      0.000707      0.000012      0.000000
      0.000715      0.000012      0.000000
      0.000723      0.000012      0.000000
      0.000730      0.000012      0.000000
      0.000738      0.000012      0.000000
      0.000746      0.000012      0.000000
      0.000754      0.000012      0.000000
      0.000762      0.000012      0.000000
      0.000770      0.000012      0.000000
      0.000777      0.000012      0.000000
      0.000785      0.000012      0.000000
[...]
POINT_DATA 16384
SCALARS rhoe double
LOOKUP_TABLE default
 0.915025E-013
 0.913156E-013
 0.915000E-013
 0.915858E-013
 0.916919E-013
 0.917943E-013
 0.918970E-013
 0.919993E-013
 0.921015E-013
 0.922033E-013
 0.923049E-013
 0.924062E-013
 0.925072E-013
 0.926079E-013
 0.927083E-013
 0.928083E-013
 0.929079E-013
 0.930071E-013
 0.931059E-013
 0.932042E-013
 0.933020E-013
 0.933992E-013
 0.934959E-013
 0.935919E-013
 0.936872E-013
 0.937817E-013
 0.938754E-013
 0.939683E-013
 0.940602E-013
 0.941511E-013
 0.942409E-013
 0.943296E-013
 0.944170E-013
 0.945031E-013
 0.945878E-013
 0.946709E-013
 0.947525E-013
 0.948324E-013
 0.949104E-013
 0.949866E-013
 0.950608E-013
 0.951329E-013
 0.952029E-013
 0.952705E-013
 0.953357E-013
 0.953984E-013
 0.954585E-013
 0.955159E-013
 0.955706E-013
 0.956223E-013
 0.956710E-013
 0.957167E-013
 0.957591E-013
 0.957984E-013
 0.958343E-013
 0.958669E-013
 0.958960E-013
 0.959216E-013
 0.959436E-013
 0.959621E-013
 0.959769E-013
 0.959880E-013
 0.959954E-013
 0.959991E-013
 0.959991E-013
 0.959954E-013
 0.959880E-013
 0.959768E-013
 0.959620E-013
 0.959436E-013
 0.959215E-013
 0.958959E-013
 0.958668E-013
 0.958343E-013
 0.957983E-013
 0.957591E-013
 0.957166E-013
 0.956709E-013
 0.956222E-013
 0.955705E-013
 0.955158E-013
 0.954584E-013
 0.953983E-013
 0.953356E-013
 0.952704E-013
 0.952027E-013
 0.951328E-013
 0.950607E-013
 0.949865E-013
 0.949103E-013
 0.948322E-013
 0.947523E-013
 0.946708E-013
 0.945876E-013
 0.945029E-013
 0.944168E-013
 0.943294E-013
 0.942408E-013
 0.941509E-013
 0.940600E-013
 0.939681E-013
 0.938753E-013
 0.937815E-013
 0.936870E-013
 0.935917E-013
 0.934957E-013
 0.933991E-013
 0.933018E-013
 0.932040E-013
 0.931058E-013
 0.930070E-013
 0.929078E-013
 0.928082E-013
 0.927082E-013
 0.926078E-013
 0.925071E-013
 0.924061E-013
 0.923048E-013
 0.922032E-013
 0.921014E-013
 0.919993E-013
 0.918969E-013
 0.917942E-013
 0.916919E-013
 0.915857E-013
 0.915000E-013
 0.913155E-013
 0.915024E-013
 0.913156E-013
 0.909029E-013
 0.909829E-013
 0.909177E-013
 0.908851E-013
 0.908467E-013
 0.908093E-013
 0.907719E-013
 0.907347E-013
 0.906975E-013
 0.906605E-013
 0.906235E-013
 0.905867E-013
 0.905500E-013
 0.905135E-013
 0.904771E-013
 0.904408E-013
 0.904047E-013
 0.903688E-013
 0.903330E-013
 0.902975E-013
 0.902622E-013
 0.902271E-013
 0.901922E-013
 0.901576E-013
 0.901233E-013
 0.900893E-013
 0.900556E-013
 0.900223E-013
 0.899894E-013
 0.899568E-013
 0.899247E-013
 0.898931E-013
 0.898619E-013
 0.898313E-013
 0.898012E-013
 0.897717E-013
 0.897428E-013
 0.897145E-013
 0.896870E-013
 0.896602E-013
 0.896342E-013
 0.896089E-013
 0.895845E-013
 0.895609E-013
 0.895383E-013
 0.895166E-013
 0.894959E-013
 0.894762E-013
 0.894576E-013
 0.894400E-013
 0.894235E-013
 0.894082E-013
 0.893941E-013
 0.893811E-013
 0.893694E-013
 0.893589E-013
 0.893497E-013
 0.893418E-013
 0.893351E-013
 0.893298E-013
 0.893258E-013
 0.893231E-013
 0.893218E-013
 0.893218E-013
 0.893231E-013
 0.893258E-013
 0.893298E-013
 0.893351E-013
 0.893418E-013
 0.893497E-013
 0.893589E-013
 0.893694E-013
 0.893812E-013
 0.893941E-013
 0.894083E-013
 0.894236E-013
 0.894401E-013
 0.894576E-013
 0.894763E-013
 0.894960E-013
 0.895167E-013
 0.895384E-013
 0.895610E-013
 0.895846E-013
 0.896090E-013
 0.896342E-013
 0.896603E-013
 0.896871E-013
 0.897147E-013
 0.897429E-013
 0.897718E-013
 0.898013E-013
 0.898314E-013
 0.898620E-013
 0.898932E-013
 0.899248E-013
 0.899569E-013
 0.899895E-013
 0.900224E-013
 0.900558E-013
 0.900894E-013
 0.901234E-013
 0.901577E-013
 0.901923E-013
 0.902272E-013
 0.902623E-013
 0.902976E-013
 0.903331E-013
 0.903689E-013
 0.904048E-013
 0.904409E-013
 0.904771E-013
 0.905136E-013
 0.905501E-013
 0.905868E-013
 0.906236E-013
 0.906605E-013
 0.906976E-013
 0.907347E-013
 0.907720E-013
 0.908094E-013
 0.908468E-013
 0.908851E-013
 0.909178E-013
 0.909829E-013
 0.909030E-013
 0.913155E-013
 0.915000E-013
 0.909829E-013
 0.911596E-013
 0.911301E-013
 0.911469E-013
 0.911553E-013
 0.911650E-013
 0.911745E-013
 0.911840E-013
 0.911934E-013
 0.912028E-013
 0.912122E-013
 0.912216E-013
 0.912309E-013
 0.912402E-013
 0.912494E-013
 0.912586E-013
 0.912678E-013
 0.912769E-013
 0.912860E-013
 0.912950E-013
 0.913040E-013
 0.913129E-013
 0.913217E-013
 0.913305E-013
 0.913392E-013
 0.913478E-013
 0.913564E-013
 0.913648E-013
 0.913732E-013
 0.913815E-013
 0.913896E-013
 0.913976E-013
 0.914055E-013
 0.914133E-013
 0.914209E-013
 0.914284E-013
 0.914357E-013
 0.914429E-013
 0.914499E-013
 0.914567E-013
 0.914633E-013
 0.914697E-013
 0.914759E-013
 0.914818E-013
 0.914876E-013
 0.914931E-013
 0.914983E-013
 0.915033E-013
 0.915081E-013
 0.915125E-013
 0.915167E-013
 0.915206E-013
 0.915242E-013
 0.915275E-013
 0.915304E-013
 0.915331E-013
 0.915354E-013
 0.915374E-013
 0.915391E-013
 0.915405E-013
 0.915415E-013
 0.915422E-013
 0.915425E-013
 0.915425E-013
 0.915422E-013
 0.915415E-013
 0.915405E-013
 0.915391E-013
 0.915374E-013
 0.915354E-013
 0.915331E-013
 0.915304E-013
 0.915274E-013
 0.915242E-013
 0.915206E-013
 0.915167E-013
 0.915125E-013
 0.915081E-013
 0.915033E-013
 0.914983E-013
 0.914931E-013
 0.914876E-013
 0.914818E-013
 0.914759E-013
 0.914697E-013
 0.914633E-013
 0.914567E-013
 0.914499E-013
 0.914429E-013
 0.914357E-013
 0.914284E-013
 0.914209E-013
 0.914133E-013
 0.914055E-013
 0.913976E-013
 0.913896E-013
 0.913814E-013
 0.913732E-013
 0.913648E-013
 0.913564E-013
 0.913478E-013
 0.913392E-013
 0.913305E-013
 0.913217E-013
 0.913129E-013
 0.913040E-013
 0.912950E-013
 0.912860E-013
 0.912769E-013
 0.912678E-013
 0.912586E-013
 0.912494E-013
 0.912402E-013
 0.912309E-013
 0.912216E-013
 0.912122E-013
 0.912028E-013
 0.911934E-013
 0.911840E-013
 0.911745E-013
 0.911650E-013
 0.911553E-013
 0.911469E-013
 0.911301E-013
 0.911596E-013
 0.909829E-013
 0.915000E-013
 0.915858E-013
 0.909177E-013
 0.911301E-013
 0.910776E-013
 0.910851E-013
 0.910818E-013
 0.910802E-013
 0.910783E-013
 0.910765E-013
 0.910746E-013
 0.910728E-013
 0.910710E-013
 0.910692E-013
 0.910674E-013
 0.910656E-013
 0.910638E-013
 0.910620E-013
 0.910602E-013
 0.910585E-013
 0.910567E-013
 0.910550E-013
 0.910532E-013
 0.910515E-013
 0.910498E-013
 0.910481E-013
 0.910464E-013
 0.910448E-013
 0.910431E-013
 0.910415E-013
 0.910399E-013
 0.910383E-013
 0.910367E-013
 0.910352E-013
 0.910337E-013
 0.910322E-013
 0.910307E-013
 0.910293E-013
 0.910279E-013
 0.910265E-013
 0.910252E-013
 0.910239E-013
 0.910226E-013
 0.910214E-013
 0.910202E-013
 0.910191E-013
 0.910180E-013
 0.910169E-013
 0.910159E-013
 0.910150E-013
 0.910141E-013
 0.910132E-013
 0.910124E-013
 0.910117E-013
 0.910110E-013
 0.910104E-013
 0.910098E-013
 0.910093E-013
 0.910089E-013
 0.910085E-013
 0.910082E-013
 0.910080E-013
 0.910078E-013
 0.910076E-013
 0.910076E-013
 0.910076E-013
 0.910076E-013
 0.910078E-013
 0.910080E-013
 0.910082E-013
 0.910085E-013
 0.910089E-013
 0.910093E-013
 0.910099E-013
 0.910104E-013
 0.910110E-013
 0.910117E-013
 0.910125E-013
 0.910132E-013
 0.910141E-013
 0.910150E-013
 0.910159E-013
 0.910169E-013
 0.910180E-013
 0.910191E-013
 0.910202E-013
 0.910214E-013
 0.910226E-013
 0.910239E-013
 0.910252E-013
 0.910265E-013
 0.910279E-013
 0.910293E-013
 0.910307E-013
 0.910322E-013
 0.910337E-013
 0.910352E-013
 0.910367E-013
 0.910383E-013
 0.910399E-013
 0.910415E-013
 0.910431E-013
 0.910448E-013
 0.910464E-013
 0.910481E-013
 0.910498E-013
 0.910515E-013
 0.910532E-013
 0.910550E-013
 0.910567E-013
 0.910585E-013
 0.910602E-013
 0.910620E-013
 0.910638E-013
 0.910656E-013
 0.910674E-013
 0.910692E-013
 0.910710E-013
 0.910728E-013
 0.910746E-013
 0.910765E-013
 0.910783E-013
 0.910802E-013
 0.910818E-013
 0.910851E-013
 0.910776E-013
 0.911301E-013
 0.909178E-013
 0.915857E-013
 0.916919E-013
 0.908851E-013
 0.911469E-013
 0.910851E-013
 0.910969E-013
 0.910955E-013
 0.910960E-013
 0.910962E-013
 0.910965E-013
 0.910968E-013
 0.910971E-013
 0.910974E-013
 0.910977E-013
 0.910980E-013
 0.910982E-013
 0.910985E-013
 0.910988E-013
 0.910991E-013
 0.910993E-013
 0.910996E-013
 0.910999E-013
 0.911002E-013
 0.911004E-013
 0.911007E-013
 0.911010E-013
 0.911013E-013
 0.911015E-013
 0.911018E-013
 0.911020E-013
 0.911023E-013
 0.911026E-013
 0.911028E-013
 0.911031E-013
 0.911033E-013
 0.911035E-013
 0.911038E-013
 0.911040E-013
 0.911042E-013
 0.911045E-013
 0.911047E-013
 0.911049E-013
 0.911051E-013
 0.911053E-013
 0.911055E-013
 0.911057E-013
 0.911059E-013
 0.911061E-013
 0.911063E-013
 0.911064E-013
 0.911066E-013
 0.911067E-013
 0.911069E-013
 0.911070E-013
 0.911071E-013
 0.911072E-013
 0.911073E-013
 0.911074E-013
 0.911075E-013
 0.911076E-013
 0.911076E-013
 0.911077E-013
 0.911077E-013
 0.911077E-013
 0.911077E-013
 0.911077E-013
 0.911077E-013
 0.911077E-013
 0.911077E-013
 0.911076E-013
 0.911076E-013
 0.911075E-013
 0.911074E-013
 0.911073E-013
 0.911072E-013
 0.911071E-013
 0.911070E-013
 0.911069E-013
 0.911067E-013
 0.911066E-013
 0.911064E-013
 0.911063E-013
 0.911061E-013
 0.911059E-013
 0.911057E-013
 0.911055E-013
 0.911053E-013
 0.911051E-013
 0.911049E-013
 0.911047E-013
 0.911045E-013
 0.911043E-013
 0.911040E-013
 0.911038E-013
 0.911035E-013
 0.911033E-013
 0.911031E-013
 0.911028E-013
 0.911026E-013
 0.911023E-013
 0.911020E-013
 0.911018E-013
 0.911015E-013
 0.911013E-013
 0.911010E-013
 0.911007E-013
 0.911004E-013
 0.911002E-013
 0.910999E-013
 0.910996E-013
 0.910994E-013
 0.910991E-013
 0.910988E-013
 0.910985E-013
 0.910982E-013
 0.910980E-013
 0.910977E-013
 0.910974E-013
 0.910971E-013
 0.910968E-013
 0.910965E-013
 0.910962E-013
 0.910960E-013
 0.910955E-013
 0.910969E-013
 0.910851E-013
 0.911469E-013
 0.908851E-013
 0.916919E-013
 0.917943E-013
 0.908467E-013
 0.911553E-013
 0.910818E-013
 0.910955E-013
 0.910933E-013
 0.910936E-013
 0.910935E-013
 0.910935E-013
 0.910934E-013
 0.910934E-013
 0.910934E-013
 0.910933E-013
 0.910933E-013
 0.910932E-013
 0.910932E-013
 0.910932E-013
 0.910931E-013
 0.910931E-013
 0.910931E-013
 0.910930E-013
 0.910930E-013
 0.910930E-013
 0.910929E-013
 0.910929E-013
 0.910929E-013
 0.910928E-013
 0.910928E-013
 0.910928E-013
 0.910928E-013
 0.910927E-013
 0.910927E-013
 0.910927E-013
 0.910927E-013
 0.910927E-013
 0.910926E-013
 0.910926E-013
 0.910926E-013
 0.910926E-013
 0.910926E-013
 0.910926E-013
 0.910926E-013
 0.910925E-013
 0.910925E-013
 0.910925E-013
 0.910925E-013
 0.910925E-013
 0.910925E-013
 0.910925E-013
 0.910925E-013
 0.910925E-013
 0.910925E-013
 0.910925E-013
 0.910925E-013
 0.910925E-013
 0.910925E-013
 0.910925E-013
 0.910925E-013
 0.910925E-013
 0.910925E-013
 0.910925E-013
 0.910925E-013
 0.910925E-013
 0.910925E-013
 0.910925E-013
 0.910925E-013
 0.910925E-013
 0.910925E-013
 0.910925E-013
 0.910925E-013
 0.910925E-013
 0.910925E-013
 0.910925E-013
 0.910925E-013
 0.910925E-013
 0.910925E-013
 0.910925E-013
 0.910925E-013
 0.910925E-013
 0.910925E-013
 0.910925E-013
 0.910925E-013
 0.910925E-013
 0.910925E-013
 0.910925E-013
 0.910925E-013
 0.910926E-013
 0.910926E-013
 0.910926E-013
 0.910926E-013
 0.910926E-013
 0.910926E-013
 0.910926E-013
 0.910927E-013
 0.910927E-013
 0.910927E-013
 0.910927E-013
 0.910927E-013
 0.910928E-013
 0.910928E-013
 0.910928E-013
 0.910929E-013
 0.910929E-013
 0.910929E-013
 0.910929E-013
 0.910930E-013
 0.910930E-013
 0.910930E-013
 0.910931E-013
 0.910931E-013
 0.910931E-013
 0.910932E-013
 0.910932E-013
 0.910932E-013
 0.910933E-013
 0.910933E-013
 0.910934E-013
 0.910934E-013
 0.910934E-013
 0.910935E-013
 0.910935E-013
 0.910936E-013
 0.910934E-013
 0.910955E-013
 0.910818E-013
 0.911553E-013
 0.908468E-013
 0.917942E-013
 0.918970E-013
 0.908093E-013
 0.911650E-013
 0.910802E-013
 0.910960E-013
 0.910936E-013
 0.910939E-013
 0.910939E-013
 0.910939E-013
 0.910939E-013
 0.910939E-013
 0.910939E-013
 0.910939E-013
 0.910939E-013
 0.910939E-013
 0.910939E-013
 0.910939E-013
 0.910939E-013
 0.910939E-013
 0.910939E-013
 0.910939E-013
 0.910939E-013
 0.910939E-013
 0.910939E-013
 0.910940E-013
 0.910940E-013
 0.910940E-013
 0.910940E-013
 0.910940E-013
 0.910940E-013
 0.910940E-013
 0.910940E-013
 0.910940E-013
 0.910941E-013
 0.910941E-013
 0.910941E-013
 0.910941E-013
 0.910941E-013
 0.910942E-013
 0.910942E-013
 0.910942E-013
 0.910942E-013
 0.910942E-013
 0.910943E-013
 0.910943E-013
 0.910943E-013
 0.910943E-013
 0.910943E-013
 0.910944E-013
 0.910944E-013
 0.910944E-013
 0.910944E-013
 0.910945E-013
 0.910945E-013
 0.910945E-013
 0.910945E-013
 0.910945E-013
 0.910945E-013
 0.910945E-013
 0.910946E-013
 0.910946E-013
 0.910946E-013
 0.910946E-013
 0.910946E-013
 0.910946E-013
 0.910946E-013
 0.910946E-013
 0.910946E-013
 0.910946E-013
 0.910945E-013
 0.910945E-013
 0.910945E-013
 0.910945E-013
 0.910945E-013
 0.910945E-013
 0.910945E-013
 0.910944E-013
 0.910944E-013
 0.910944E-013
 0.910944E-013
 0.910944E-013
 0.910943E-013
 0.910943E-013
 0.910943E-013
 0.910943E-013
 0.910942E-013
 0.910942E-013
 0.910942E-013
 0.910942E-013
 0.910942E-013
 0.910941E-013
 0.910941E-013
 0.910941E-013
 0.910941E-013
 0.910941E-013
 0.910941E-013
 0.910940E-013
 0.910940E-013
 0.910940E-013
 0.910940E-013
 0.910940E-013
 0.910940E-013
 0.910940E-013
 0.910940E-013
 0.910940E-013
 0.910939E-013
 0.910939E-013
 0.910939E-013
 0.910939E-013
 0.910939E-013
 0.910939E-013
 0.910939E-013
 0.910939E-013
 0.910939E-013
 0.910939E-013
 0.910939E-013
 0.910939E-013
 0.910939E-013
 0.910939E-013
 0.910939E-013
 0.910939E-013
 0.910939E-013
 0.910936E-013
 0.910960E-013
 0.910802E-013
 0.911650E-013
 0.908094E-013
 0.918969E-013
 0.919993E-013
 0.907719E-013
 0.911745E-013
 0.910783E-013
 0.910962E-013
 0.910935E-013
 0.910939E-013
 0.910938E-013
 0.910938E-013
 0.910938E-013
 0.910938E-013
 0.910938E-013
 0.910938E-013
 0.910938E-013
 0.910938E-013
 0.910938E-013
 0.910938E-013
 0.910938E-013
 0.910938E-013
 0.910938E-013
 0.910938E-013
 0.910938E-013
 0.910938E-013
 0.910938E-013
 0.910938E-013
 0.910938E-013
 0.910939E-013
 0.910939E-013
 0.910939E-013
 0.910939E-013
 0.910939E-013
 0.910939E-013
 0.910939E-013
 0.910939E-013
 0.910939E-013
 0.910940E-013
 0.910940E-013
 0.910940E-013
 0.910940E-013
 0.910940E-013
 0.910941E-013
 0.910941E-013
 0.910941E-013
 0.910941E-013
 0.910941E-013
 0.910942E-013
 0.910942E-013
 0.910942E-013
 0.910942E-013
 0.910943E-013
 0.910943E-013
 0.910943E-013
 0.910943E-013
 0.910943E-013
 0.910944E-013
 0.910944E-013
 0.910944E-013
 0.910944E-013
 0.910944E-013
 0.910944E-013
 0.910944E-013
 0.910945E-013
 0.910945E-013
 0.910945E-013
 0.910945E-013
 0.910945E-013
 0.910945E-013
 0.910944E-013
 0.910944E-013
 0.910944E-013
 0.910944E-013
 0.910944E-013
 0.910944E-013
 0.910944E-013
 0.910944E-013
 0.910943E-013
 0.910943E-013
 0.910943E-013
 0.910943E-013
 0.910942E-013
 0.910942E-013
 0.910942E-013
 0.910942E-013
 0.910942E-013
 0.910941E-013
 0.910941E-013
 0.910941E-013
 0.910941E-013
 0.910940E-013
 0.910940E-013
 0.910940E-013
 0.910940E-013
 0.910940E-013
 0.910940E-013
 0.910939E-013
 0.910939E-013
 0.910939E-013
 0.910939E-013
 0.910939E-013
 0.910939E-013
 0.910939E-013
 0.910939E-013
 0.910939E-013
 0.910939E-013
 0.910938E-013
 0.910938E-013
 0.910938E-013
 0.910938E-013
 0.910938E-013
 0.910938E-013
 0.910938E-013
 0.910938E-013
 0.910938E-013
 0.910938E-013
 0.910938E-013
 0.910938E-013
 0.910938E-013
 0.910938E-013
 0.910938E-013
 0.910938E-013
 0.910938E-013
 0.910939E-013
 0.910935E-013
 0.910962E-013
 0.910783E-013
 0.911745E-013
 0.907720E-013
 0.919992E-013
 0.921015E-013
 0.907347E-013
 0.911840E-013
 0.910765E-013
 0.910965E-013
 0.910935E-013
 0.910939E-013
 0.910938E-013
 0.910938E-013
 0.910938E-013
 0.910938E-013
 0.910938E-013
 0.910938E-013
 0.910938E-013
 0.910938E-013
 0.910938E-013
 0.910938E-013
 0.910938E-013
 0.910938E-013
 0.910938E-013
 0.910938E-013
 0.910938E-013
 0.910938E-013
 0.910939E-013
 0.910939E-013
 0.910939E-013
 0.910939E-013
 0.910939E-013
 0.910939E-013
 0.910939E-013
 0.910939E-013
 0.910939E-013
 0.910940E-013
 0.910940E-013
 0.910940E-013
 0.910940E-013
 0.910940E-013
 0.910941E-013
 0.910941E-013
 0.910941E-013
 0.910941E-013
 0.910942E-013
 0.910942E-013
 0.910942E-013
 0.910942E-013
 0.910943E-013
 0.910943E-013
 0.910943E-013
 0.910943E-013
 0.910944E-013
 0.910944E-013
 0.910944E-013
 0.910945E-013
 0.910945E-013
 0.910945E-013
 0.910945E-013
 0.910945E-013
 0.910946E-013
 0.910946E-013
 0.910946E-013
 0.910946E-013
 0.910946E-013
 0.910946E-013
 0.910946E-013
 0.910946E-013
 0.910946E-013
 0.910946E-013
 0.910946E-013
 0.910946E-013
 0.910946E-013
 0.910946E-013
 0.910945E-013
 0.910945E-013
 0.910945E-013
 0.910945E-013
 0.910945E-013
 0.910944E-013
 0.910944E-013
 0.910944E-013
 0.910944E-013
 0.910943E-013
 0.910943E-013
 0.910943E-013
 0.910942E-013
 0.910942E-013
 0.910942E-013
 0.910942E-013
 0.910941E-013
 0.910941E-013
 0.910941E-013
 0.910941E-013
 0.910940E-013
 0.910940E-013
 0.910940E-013
 0.910940E-013
 0.910940E-013
 0.910940E-013
 0.910939E-013
 0.910939E-013
 0.910939E-013
 0.910939E-013
 0.910939E-013
 0.910939E-013
 0.910939E-013
 0.910939E-013
 0.910939E-013
 0.910939E-013
 0.910938E-013
 0.910938E-013
 0.910938E-013
 0.910938E-013
 0.910938E-013
 0.910938E-013
 0.910938E-013
 0.910938E-013
 0.910938E-013
 0.910938E-013
 0.910938E-013
 0.910938E-013
 0.910938E-013
 0.910938E-013
 0.910939E-013
 0.910935E-013
 0.910965E-013
 0.910765E-013
 0.911840E-013
 0.907348E-013
 0.921014E-013
 0.922033E-013
 0.906975E-013
 0.911934E-013
 0.910746E-013
 0.910968E-013
 0.910934E-013
 0.910939E-013
 0.910938E-013
 0.910938E-013
 0.910938E-013
 0.910938E-013
 0.910938E-013
 0.910938E-013
 0.910938E-013
 0.910938E-013
 0.910938E-013
 0.910938E-013
 0.910938E-013
 0.910938E-013
 0.910938E-013
 0.910938E-013
 0.910938E-013
 0.910939E-013
 0.910939E-013
 0.910939E-013
 0.910939E-013
 0.910939E-013
 0.910939E-013
 0.910939E-013
 0.910939E-013
 0.910939E-013
 0.910940E-013
 0.910940E-013
 0.910940E-013
 0.910940E-013
 0.910941E-013
 0.910941E-013
 0.910941E-013
 0.910941E-013
 0.910942E-013
 0.910942E-013
 0.910942E-013
 0.910942E-013
 0.910943E-013
 0.910943E-013
 0.910943E-013
 0.910944E-013
 0.910944E-013
 0.910944E-013
 0.910945E-013
 0.910945E-013
 0.910945E-013
 0.910946E-013
 0.910946E-013
 0.910946E-013
 0.910946E-013
 0.910947E-013
 0.910947E-013
 0.910947E-013
 0.910947E-013
 0.910947E-013
 0.910947E-013
 0.910948E-013
 0.910948E-013
 0.910948E-013
 0.910948E-013
 0.910947E-013
 0.910947E-013
 0.910947E-013
 0.910947E-013
 0.910947E-013
 0.910947E-013
 0.910947E-013
 0.910946E-013
 0.910946E-013
 0.910946E-013
 0.910945E-013
 0.910945E-013
 0.910945E-013
 0.910945E-013
 0.910944E-013
 0.910944E-013
 0.910944E-013
 0.910943E-013
 0.910943E-013
 0.910943E-013
 0.910942E-013
 0.910942E-013
 0.910942E-013
 0.910941E-013
 0.910941E-013
 0.910941E-013
 0.910941E-013
 0.910940E-013
 0.910940E-013
 0.910940E-013
 0.910940E-013
 0.910940E-013
 0.910939E-013
 0.910939E-013
 0.910939E-013
 0.910939E-013
 0.910939E-013
 0.910939E-013
 0.910939E-013
 0.910939E-013
 0.910939E-013
 0.910939E-013
 0.910938E-013
 0.910938E-013
 0.910938E-013
 0.910938E-013
 0.910938E-013
 0.910938E-013
 0.910938E-013
 0.910938E-013
 0.910938E-013
 0.910938E-013
 0.910938E-013
 0.910938E-013
 0.910938E-013
 0.910939E-013
 0.910934E-013
 0.910968E-013
 0.910746E-013
 0.911934E-013
 0.906976E-013
 0.922032E-013
 0.923049E-013
 0.906605E-013
 0.912028E-013
 0.910728E-013
 0.910971E-013
 0.910934E-013
 0.910939E-013
 0.910938E-013
 0.910938E-013
 0.910938E-013
 0.910938E-013
 0.910938E-013
 0.910938E-013
 0.910938E-013
 0.910938E-013
 0.910938E-013
 0.910938E-013
 0.910938E-013
 0.910938E-013
 0.910938E-013
 0.910938E-013
 0.910939E-013
 0.910939E-013
 0.910939E-013
 0.910939E-013
 0.910939E-013
 0.910939E-013
 0.910939E-013
 0.910939E-013
 0.910940E-013
 0.910940E-013
 0.910940E-013
 0.910940E-013
 0.910940E-013
 0.910941E-013
 0.910941E-013
 0.910941E-013
 0.910942E-013
 0.910942E-013
 0.910942E-013
 0.910943E-013
 0.910943E-013
 0.910943E-013
 0.910944E-013
 0.910944E-013
 0.910944E-013
 0.910945E-013
 0.910945E-013
 0.910946E-013