# vtk DataFile Version 3.0
Solution data
ASCII
DATASET STRUCTURED_GRID
DIMENSIONS 128 128 1
POINTS 16384  double
      0.000004      0.000004      0.000000
      0.000012      0.000004      0.000000
      0.000020      0.000004      0.000000
      0.000027      0.000004      0.000000
      0.000035      0.000004      0.000000
      0.000043      0.000004      0.000000
      0.000051      0.000004      0.000000
      0.000059      0.000004      0.000000
      0.000066      0.000004      0.000000
      0.000074      0.000004      0.000000
      0.000082      0.000004      0.000000
      0.000090      0.000004      0.000000
      0.000098      0.000004      0.000000
      0.000105      0.000004      0.000000
      0.000113      0.000004      0.000000
      0.000121      0.000004      0.000000
      0.000129      0.000004      0.000000
      0.000137      0.000004      0.000000
      0.000145      0.000004      0.000000
      0.000152      0.000004      0.000000
      0.000160      0.000004      0.000000
      0.000168      0.000004      0.000000
      0.000176      0.000004      0.000000
      0.000184      0.000004      0.000000
      0.000191      0.000004      0.000000
      0.000199      0.000004      0.000000
      0.000207      0.000004      0.000000
      0.000215      0.000004      0.000000
      0.000223      0.000004      0.000000
      0.000230      0.000004      0.000000
      0.000238      0.000004      0.000000
      0.000246      0.000004      0.000000
      0.000254      0.000004      0.000000
      0.000262      0.000004      0.000000
      0.000270      0.000004      0.000000
      0.000277      0.000004      0.000000
      0.000285      0.000004      0.000000
      0.000293      0.000004      0.000000
      0.000301      0.000004      0.000000
      0.000309      0.000004      0.000000
      0.000316      0.000004      0.000000
      0.000324      0.000004      0.000000
      0.000332      0.000004      0.000000
      0.000340      0.000004      0.000000
      0.000348      0.000004      0.000000
      0.000355      0.000004      0.000000
      0.000363      0.000004      0.000000
      0.000371      0.000004      0.000000
      0.000379      0.000004      0.000000
      0.000387      0.000004      0.000000
      0.000395      0.000004      0.000000
      0.000402      0.000004      0.000000
      0.000410      0.000004      0.000000
      0.000418      0.000004      0.000000
      0.000426      0.000004      0.000000
      0.000434      0.000004      0.000000
      0.000441      0.000004      0.000000
      0.000449      0.000004      0.000000
      0.000457      0.000004      0.000000
      0.000465      0.000004      0.000000
      0.000473      0.000004      0.000000
      0.000480      0.000004      0.000000
      0.000488      0.000004      0.000000
      0.000496      0.000004      0.000000
      0.000504      0.000004      0.000000
      0.000512      0.000004      0.000000
      0.000520      0.000004      0.000000
      0.000527      0.000004      0.000000
      0.000535      0.000004      0.000000
      0.000543      0.000004      0.000000
      0.000551      0.000004      0.000000
      0.000559      0.000004      0.000000
      0.000566      0.000004      0.000000
      0.000574      0.000004      0.000000
      0.000582      0.000004      0.000000
      0.000590      0.000004      0.000000
      0.000598      0.000004      0.000000
      0.000605      0.000004      0.000000
      0.000613      0.000004      0.000000
      0.000621      0.000004      0.000000
      0.000629      0.000004      0.000000
      0.000637      0.000004      0.000000
      0.000645      0.000004      0.000000
      0.000652      0.000004      0.000000
      0.000660      0.000004      0.000000
      0.000668      0.000004      0.000000
      0.000676      0.000004      0.000000
      0.000684      0.000004      0.000000
      0.000691      0.000004      0.000000
      0.000699      0.000004      0.000000
      0.000707      0.000004      0.000000
      0.000715      0.000004      0.000000
      0.000723      0.000004      0.000000
      0.000730      0.000004      0.000000
      0.000738      0.000004      0.000000
      0.000746      0.000004      0.000000
      0.000754      0.000004      0.000000
      0.000762      0.000004      0.000000
      0.000770      0.000004      0.000000
      0.000777      0.000004      0.000000
      0.000785      0.000004      0.000000
      0.000793      0.000004      0.000000
      0.000801      0.000004      0.000000
      0.000809      0.000004      0.000000
      0.000816      0.000004      0.000000
      0.000824      0.000004      0.000000
      0.000832      0.000004      0.000000
      0.000840      0.000004      0.000000
      0.000848      0.000004      0.000000
      0.000855      0.000004      0.000000
      0.000863      0.000004      0.000000
      0.000871      0.000004      0.000000
      0.000879      0.000004      0.000000
      0.000887      0.000004      0.000000
      0.000895      0.000004      0.000000
      0.000902      0.000004      0.000000
      0.000910      0.000004      0.000000
      0.000918      0.000004      0.000000
      0.000926      0.000004      0.000000
      0.000934      0.000004      0.000000
      0.000941      0.000004      0.000000
      0.000949      0.000004      0.000000
      0.000957      0.000004      0.000000
      0.000965      0.000004      0.000000
      0.000973      0.000004      0.000000
      0.000980      0.000004      0.000000
      0.000988      0.000004      0.000000
      0.000996      0.000004      0.000000
      0.000004      0.000012      0.000000
      0.000012      0.000012      0.000000
      0.000020      0.000012      0.000000
      0.000027      0.000012      0.000000
      0.000035      0.000012      0.000000
      0.000043      0.000012      0.000000
      0.000051      0.000012      0.000000
      0.000059      0.000012      0.000000
      0.000066      0.000012      0.000000
      0.000074      0.000012      0.000000
      0.000082      0.000012      0.000000
      0.000090      0.000012      0.000000
      0.000098      0.000012      0.000000
      0.000105      0.000012      0.000000
      0.000113      0.000012      0.000000
      0.000121      0.000012      0.000000
      0.000129      0.000012      0.000000
      0.000137      0.000012      0.000000
      0.000145      0.000012      0.000000
      0.000152      0.000012      0.000000
      0.000160      0.000012      0.000000
      0.000168      0.000012      0.000000
      0.000176      0.000012      0.000000
      0.000184      0.000012      0.000000
      0.000191      0.000012      0.000000
      0.000199      0.000012      0.000000
      0.000207      0.000012      0.000000
      0.000215      0.000012      0.000000
      0.000223      0.000012      0.000000
      0.000230      0.000012      0.000000
      0.000238      0.000012      0.000000
      0.000246      0.000012      0.000000
      0.000254      0.000012      0.000000
      0.000262      0.000012      0.000000
      0.000270      0.000012      0.000000
      0.000277      0.000012      0.000000
      0.000285      0.000012      0.000000
      0.000293      0.000012      0.000000
      0.000301      0.000012      0.000000
      0.000309      0.000012      0.000000
      0.000316      0.000012      0.000000
      0.000324      0.000012      0.000000
      0.000332      0.000012      0.000000
      0.000340      0.000012      0.000000
      0.000348      0.000012      0.000000
      0.000355      0.000012      0.000000
      0.000363      0.000012      0.000000
      0.000371      0.000012      0.000000
      0.000379      0.000012      0.000000
      0.000387      0.000012      0.000000
      0.000395      0.000012      0.000000
      0.000402      0.000012      0.000000
      0.000410      0.000012      0.000000
      0.000418      0.000012      0.000000
      0.000426      0.000012      0.000000
      0.000434      0.000012      0.000000
      0.000441      0.000012      0.000000
      0.000449      0.000012      0.000000
      0.000457      0.000012      0.000000
      0.000465      0.000012      0.000000
      0.000473      0.000012      0.000000
      0.000480      0.000012      0.000000
      0.000488      0.000012      0.000000
      0.000496      0.000012      0.000000
      0.000504      0.000012      0.000000
      0.000512      0.000012      0.000000
      0.000520      0.000012      0.000000
      0.000527      0.000012      0.000000
      0.000535      0.000012      0.000000
      0.000543      0.000012      0.000000
      0.000551      0.000012      0.000000
      0.000559      0.000012      0.000000
      0.000566      0.000012      0.000000
      0.000574      0.000012      0.000000
      0.000582      0.000012      0.000000
      0.000590      0.000012      0.000000
      0.000598      0.000012      0.000000
      0.000605      0.000012      0.000000
      0.000613      0.000012      0.000000
      0.000621      0.000012      0.000000
      0.000629      0.000012      0.000000
      0.000637      0.000012      0.000000
      0.000645      0.000012      0.000000
      0.000652      0.000012      0.000000
      0.000660      0.000012      0.000000
      0.000668      0.000012      0.000000
      0.000676      0.000012      0.000000
      0.000684      0.000012      0.000000
      0.000691      0.000012      0.000000
      0.000699      0.000012      0.000000
      0.000707      0.000012      0.000000
      0.000715      0.000012      0.000000
      0.000723      0.000012      0.000000
      0.000730      0.000012      0.000000
      0.000738      0.000012      0.000000
      0.000746      0.000012      0.000000
      0.000754      0.000012      0.000000
      0.000762      0.000012      0.000000
      0.000770      0.000012      0.000000
      0.000777      0.000012      0.000000
      0.000785      0.000012      0.000000
[...]
POINT_DATA 16384
SCALARS rhoe double
LOOKUP_TABLE default
 0.912589E-013
 0.912350E-013
 0.913110E-013
 0.913779E-013
 0.914453E-013
 0.915127E-013
 0.915799E-013
 0.916471E-013
 0.917142E-013
 0.917812E-013
 0.918482E-013
 0.919150E-013
 0.919818E-013
 0.920484E-013
 0.921149E-013
 0.921813E-013
 0.922474E-013
 0.923135E-013
 0.923793E-013
 0.924449E-013
 0.925103E-013
 0.925753E-013
 0.926401E-013
 0.927046E-013
 0.927686E-013
 0.928323E-013
 0.928955E-013
 0.929582E-013
 0.930204E-013
 0.930819E-013
 0.931429E-013
 0.932031E-013
 0.932626E-013
 0.933212E-013
 0.933790E-013
 0.934358E-013
 0.934916E-013
 0.935463E-013
 0.935999E-013
 0.936522E-013
 0.937033E-013
 0.937530E-013
 0.938012E-013
 0.938479E-013
 0.938929E-013
 0.939363E-013
 0.939780E-013
 0.940178E-013
 0.940557E-013
 0.940917E-013
 0.941255E-013
 0.941573E-013
 0.941869E-013
 0.942143E-013
 0.942394E-013
 0.942621E-013
 0.942824E-013
 0.943003E-013
 0.943157E-013
 0.943286E-013
 0.943389E-013
 0.943467E-013
 0.943519E-013
 0.943545E-013
 0.943545E-013
 0.943519E-013
 0.943467E-013
 0.943389E-013
 0.943285E-013
 0.943156E-013
 0.943002E-013
 0.942823E-013
 0.942620E-013
 0.942392E-013
 0.942141E-013
 0.941868E-013
 0.941571E-013
 0.941254E-013
 0.940915E-013
 0.940555E-013
 0.940176E-013
 0.939778E-013
 0.939361E-013
 0.938927E-013
 0.938476E-013
 0.938009E-013
 0.937527E-013
 0.937030E-013
 0.936520E-013
 0.935996E-013
 0.935460E-013
 0.934913E-013
 0.934355E-013
 0.933787E-013
 0.933209E-013
 0.932622E-013
 0.932028E-013
 0.931425E-013
 0.930816E-013
 0.930201E-013
 0.929579E-013
 0.928952E-013
 0.928320E-013
 0.927683E-013
 0.927043E-013
 0.926398E-013
 0.925751E-013
 0.925100E-013
 0.924446E-013
 0.923790E-013
 0.923132E-013
 0.922472E-013
 0.921810E-013
 0.921147E-013
 0.920482E-013
 0.919816E-013
 0.919148E-013
 0.918480E-013
 0.917811E-013
 0.917141E-013
 0.916470E-013
 0.915798E-013
 0.915126E-013
 0.914453E-013
 0.913779E-013
 0.913110E-013
 0.912349E-013
 0.912589E-013
 0.912350E-013
 0.910643E-013
 0.910732E-013
 0.910653E-013
 0.910585E-013
 0.910516E-013
 0.910448E-013
 0.910379E-013
 0.910311E-013
 0.910243E-013
 0.910175E-013
 0.910107E-013
 0.910040E-013
 0.909972E-013
 0.909905E-013
 0.909838E-013
 0.909771E-013
 0.909704E-013
 0.909638E-013
 0.909572E-013
 0.909506E-013
 0.909440E-013
 0.909375E-013
 0.909311E-013
 0.909246E-013
 0.909182E-013
 0.909119E-013
 0.909056E-013
 0.908994E-013
 0.908933E-013
 0.908872E-013
 0.908812E-013
 0.908753E-013
 0.908695E-013
 0.908637E-013
 0.908581E-013
 0.908526E-013
 0.908471E-013
 0.908419E-013
 0.908367E-013
 0.908317E-013
 0.908268E-013
 0.908220E-013
 0.908174E-013
 0.908130E-013
 0.908088E-013
 0.908047E-013
 0.908008E-013
 0.907971E-013
 0.907936E-013
 0.907903E-013
 0.907872E-013
 0.907843E-013
 0.907817E-013
 0.907792E-013
 0.907770E-013
 0.907751E-013
 0.907733E-013
 0.907718E-013
 0.907706E-013
 0.907696E-013
 0.907688E-013
 0.907683E-013
 0.907681E-013
 0.907681E-013
 0.907683E-013
 0.907688E-013
 0.907696E-013
 0.907706E-013
 0.907718E-013
 0.907733E-013
 0.907751E-013
 0.907770E-013
 0.907792E-013
 0.907817E-013
 0.907843E-013
 0.907872E-013
 0.907903E-013
 0.907936E-013
 0.907971E-013
 0.908008E-013
 0.908047E-013
 0.908088E-013
 0.908130E-013
 0.908174E-013
 0.908220E-013
 0.908268E-013
 0.908316E-013
 0.908367E-013
 0.908418E-013
 0.908471E-013
 0.908525E-013
 0.908581E-013
 0.908637E-013
 0.908694E-013
 0.908753E-013
 0.908812E-013
 0.908872E-013
 0.908933E-013
 0.908994E-013
 0.909056E-013
 0.909119E-013
 0.909182E-013
 0.909246E-013
 0.909310E-013
 0.909375E-013
 0.909440E-013
 0.909506E-013
 0.909572E-013
 0.909638E-013
 0.909704E-013
 0.909771E-013
 0.909838E-013
 0.909905E-013
 0.909972E-013
 0.910039E-013
 0.910107E-013
 0.910175E-013
 0.910243E-013
 0.910311E-013
 0.910379E-013
 0.910447E-013
 0.910516E-013
 0.910584E-013
 0.910653E-013
 0.910732E-013
 0.910643E-013
 0.912349E-013
 0.913110E-013
 0.910732E-013
 0.910968E-013
 0.910957E-013
 0.910962E-013
 0.910967E-013
 0.910972E-013
 0.910976E-013
 0.910981E-013
 0.910986E-013
 0.910990E-013
 0.910995E-013
 0.911000E-013
 0.911004E-013
 0.911009E-013
 0.911014E-013
 0.911018E-013
 0.911023E-013
 0.911028E-013
 0.911032E-013
 0.911037E-013
 0.911041E-013
 0.911046E-013
 0.911051E-013
 0.911055E-013
 0.911060E-013
 0.911065E-013
 0.911069E-013
 0.911074E-013
 0.911078E-013
 0.911083E-013
 0.911088E-013
 0.911092E-013
 0.911097E-013
 0.911101E-013
 0.911106E-013
 0.911110E-013
 0.911114E-013
 0.911119E-013
 0.911123E-013
 0.911127E-013
 0.911131E-013
 0.911135E-013
 0.911139E-013
 0.911143E-013
 0.911147E-013
 0.911151E-013
 0.911154E-013
 0.911158E-013
 0.911161E-013
 0.911164E-013
 0.911167E-013
 0.911170E-013
 0.911172E-013
 0.911174E-013
 0.911177E-013
 0.911178E-013
 0.911180E-013
 0.911182E-013
 0.911183E-013
 0.911184E-013
 0.911185E-013
 0.911185E-013
 0.911185E-013
 0.911185E-013
 0.911185E-013
 0.911185E-013
 0.911184E-013
 0.911183E-013
 0.911182E-013
 0.911180E-013
 0.911178E-013
 0.911177E-013
 0.911174E-013
 0.911172E-013
 0.911170E-013
 0.911167E-013
 0.911164E-013
 0.911161E-013
 0.911158E-013
 0.911154E-013
 0.911151E-013
 0.911147E-013
 0.911143E-013
 0.911139E-013
 0.911135E-013
 0.911131E-013
 0.911127E-013
 0.911123E-013
 0.911119E-013
 0.911114E-013
 0.911110E-013
 0.911106E-013
 0.911101E-013
 0.911097E-013
 0.911092E-013
 0.911088E-013
 0.911083E-013
 0.911078E-013
 0.911074E-013
 0.911069E-013
 0.911065E-013
 0.911060E-013
 0.911055E-013
 0.911051E-013
 0.911046E-013
 0.911042E-013
 0.911037E-013
 0.911032E-013
 0.911028E-013
 0.911023E-013
 0.911018E-013
 0.911014E-013
 0.911009E-013
 0.911004E-013
 0.911000E-013
 0.910995E-013
 0.910990E-013
 0.910986E-013
 0.910981E-013
 0.910976E-013
 0.910972E-013
 0.910967E-013
 0.910962E-013
 0.910957E-013
 0.910968E-013
 0.910732E-013
 0.913110E-013
 0.913779E-013
 0.910653E-013
 0.910957E-013
 0.910936E-013
 0.910937E-013
 0.910937E-013
 0.910937E-013
 0.910937E-013
 0.910936E-013
 0.910936E-013
 0.910936E-013
 0.910936E-013
 0.910936E-013
 0.910935E-013
 0.910935E-013
 0.910935E-013
 0.910935E-013
 0.910935E-013
 0.910935E-013
 0.910935E-013
 0.910935E-013
 0.910935E-013
 0.910935E-013
 0.910935E-013
 0.910935E-013
 0.910935E-013
 0.910935E-013
 0.910935E-013
 0.910936E-013
 0.910936E-013
 0.910936E-013
 0.910936E-013
 0.910937E-013
 0.910937E-013
 0.910938E-013
 0.910938E-013
 0.910939E-013
 0.910940E-013
 0.910940E-013
 0.910941E-013
 0.910942E-013
 0.910942E-013
 0.910943E-013
 0.910944E-013
 0.910945E-013
 0.910946E-013
 0.910947E-013
 0.910948E-013
 0.910948E-013
 0.910949E-013
 0.910950E-013
 0.910951E-013
 0.910952E-013
 0.910953E-013
 0.910953E-013
 0.910954E-013
 0.910955E-013
 0.910955E-013
 0.910956E-013
 0.910956E-013
 0.910956E-013
 0.910957E-013
 0.910957E-013
 0.910957E-013
 0.910957E-013
 0.910957E-013
 0.910957E-013
 0.910956E-013
 0.910956E-013
 0.910956E-013
 0.910955E-013
 0.910955E-013
 0.910954E-013
 0.910953E-013
 0.910953E-013
 0.910952E-013
 0.910951E-013
 0.910950E-013
 0.910949E-013
 0.910948E-013
 0.910948E-013
 0.910947E-013
 0.910946E-013
 0.910945E-013
 0.910944E-013
 0.910943E-013
 0.910942E-013
 0.910942E-013
 0.910941E-013
 0.910940E-013
 0.910940E-013
 0.910939E-013
 0.910938E-013
 0.910938E-013
 0.910937E-013
 0.910937E-013
 0.910936E-013
 0.910936E-013
 0.910936E-013
 0.910936E-013
 0.910935E-013
 0.910935E-013
 0.910935E-013
 0.910935E-013
 0.910935E-013
 0.910935E-013
 0.910935E-013
 0.910935E-013
 0.910935E-013
 0.910935E-013
 0.910935E-013
 0.910935E-013
 0.910935E-013
 0.910935E-013
 0.910935E-013
 0.910936E-013
 0.910936E-013
 0.910936E-013
 0.910936E-013
 0.910936E-013
 0.910937E-013
 0.910937E-013
 0.910937E-013
 0.910937E-013
 0.910936E-013
 0.910957E-013
 0.910653E-013
 0.913779E-013
 0.914453E-013
 0.910585E-013
 0.910962E-013
 0.910937E-013
 0.910939E-013
 0.910938E-013
 0.910939E-013
 0.910939E-013
 0.910939E-013
 0.910939E-013
 0.910939E-013
 0.910939E-013
 0.910939E-013
 0.910939E-013
 0.910939E-013
 0.910939E-013
 0.910939E-013
 0.910940E-013
 0.910940E-013
 0.910940E-013
 0.910940E-013
 0.910940E-013
 0.910941E-013
 0.910941E-013
 0.910941E-013
 0.910942E-013
 0.910942E-013
 0.910943E-013
 0.910943E-013
 0.910944E-013
 0.910945E-013
 0.910945E-013
 0.910946E-013
 0.910947E-013
 0.910948E-013
 0.910949E-013
 0.910950E-013
 0.910951E-013
 0.910952E-013
 0.910953E-013
 0.910954E-013
 0.910955E-013
 0.910956E-013
 0.910957E-013
 0.910959E-013
 0.910960E-013
 0.910961E-013
 0.910962E-013
 0.910964E-013
 0.910965E-013
 0.910966E-013
 0.910967E-013
 0.910968E-013
 0.910969E-013
 0.910970E-013
 0.910971E-013
 0.910972E-013
 0.910973E-013
 0.910973E-013
 0.910974E-013
 0.910974E-013
 0.910975E-013
 0.910975E-013
 0.910975E-013
 0.910975E-013
 0.910975E-013
 0.910975E-013
 0.910974E-013
 0.910974E-013
 0.910973E-013
 0.910973E-013
 0.910972E-013
 0.910971E-013
 0.910970E-013
 0.910969E-013
 0.910968E-013
 0.910967E-013
 0.910966E-013
 0.910965E-013
 0.910964E-013
 0.910962E-013
 0.910961E-013
 0.910960E-013
 0.910959E-013
 0.910957E-013
 0.910956E-013
 0.910955E-013
 0.910954E-013
 0.910953E-013
 0.910952E-013
 0.910951E-013
 0.910950E-013
 0.910949E-013
 0.910948E-013
 0.910947E-013
 0.910946E-013
 0.910945E-013
 0.910945E-013
 0.910944E-013
 0.910943E-013
 0.910943E-013
 0.910942E-013
 0.910942E-013
 0.910941E-013
 0.910941E-013
 0.910941E-013
 0.910940E-013
 0.910940E-013
 0.910940E-013
 0.910940E-013
 0.910940E-013
 0.910939E-013
 0.910939E-013
 0.910939E-013
 0.910939E-013
 0.910939E-013
 0.910939E-013
 0.910939E-013
 0.910939E-013
 0.910939E-013
 0.910939E-013
 0.910939E-013
 0.910939E-013
 0.910939E-013
 0.910937E-013
 0.910962E-013
 0.910584E-013
 0.914453E-013
 0.915127E-013
 0.910516E-013
 0.910967E-013
 0.910937E-013
 0.910938E-013
 0.910938E-013
 0.910938E-013
 0.910938E-013
 0.910939E-013
 0.910939E-013
 0.910939E-013
 0.910939E-013
 0.910939E-013
 0.910939E-013
 0.910939E-013
 0.910939E-013
 0.910939E-013
 0.910940E-013
 0.910940E-013
 0.910940E-013
 0.910940E-013
 0.910941E-013
 0.910941E-013
 0.910941E-013
 0.910942E-013
 0.910942E-013
 0.910943E-013
 0.910943E-013
 0.910944E-013
 0.910945E-013
 0.910946E-013
 0.910946E-013
 0.910947E-013
 0.910948E-013
 0.910949E-013
 0.910950E-013
 0.910951E-013
 0.910953E-013
 0.910954E-013
 0.910955E-013
 0.910956E-013
 0.910958E-013
 0.910959E-013
 0.910961E-013
 0.910962E-013
 0.910964E-013
 0.910965E-013
 0.910967E-013
 0.910968E-013
 0.910969E-013
 0.910971E-013
 0.910972E-013
 0.910974E-013
 0.910975E-013
 0.910976E-013
 0.910977E-013
 0.910978E-013
 0.910979E-013
 0.910980E-013
 0.910980E-013
 0.910981E-013
 0.910981E-013
 0.910981E-013
 0.910982E-013
 0.910982E-013
 0.910981E-013
 0.910981E-013
 0.910981E-013
 0.910980E-013
 0.910980E-013
 0.910979E-013
 0.910978E-013
 0.910977E-013
 0.910976E-013
 0.910975E-013
 0.910974E-013
 0.910972E-013
 0.910971E-013
 0.910969E-013
 0.910968E-013
 0.910967E-013
 0.910965E-013
 0.910964E-013
 0.910962E-013
 0.910961E-013
 0.910959E-013
 0.910958E-013
 0.910956E-013
 0.910955E-013
 0.910954E-013
 0.910953E-013
 0.910951E-013
 0.910950E-013
 0.910949E-013
 0.910948E-013
 0.910947E-013
 0.910946E-013
 0.910946E-013
 0.910945E-013
 0.910944E-013
 0.910943E-013
 0.910943E-013
 0.910942E-013
 0.910942E-013
 0.910941E-013
 0.910941E-013
 0.910941E-013
 0.910940E-013
 0.910940E-013
 0.910940E-013
 0.910940E-013
 0.910939E-013
 0.910939E-013
 0.910939E-013
 0.910939E-013
 0.910939E-013
 0.910939E-013
 0.910939E-013
 0.910939E-013
 0.910939E-013
 0.910939E-013
 0.910939E-013
 0.910938E-013
 0.910939E-013
 0.910937E-013
 0.910967E-013
 0.910516E-013
 0.915126E-013
 0.915799E-013
 0.910448E-013
 0.910972E-013
 0.910937E-013
 0.910939E-013
 0.910938E-013
 0.910938E-013
 0.910939E-013
 0.910939E-013
 0.910939E-013
 0.910939E-013
 0.910939E-013
 0.910939E-013
 0.910939E-013
 0.910939E-013
 0.910939E-013
 0.910940E-013
 0.910940E-013
 0.910940E-013
 0.910940E-013
 0.910941E-013
 0.910941E-013
 0.910942E-013
 0.910942E-013
 0.910943E-013
 0.910943E-013
 0.910944E-013
 0.910944E-013
 0.910945E-013
 0.910946E-013
 0.910947E-013
 0.910948E-013
 0.910949E-013
 0.910950E-013
 0.910951E-013
 0.910953E-013
 0.910954E-013
 0.910955E-013
 0.910957E-013
 0.910958E-013
 0.910960E-013
 0.910962E-013
 0.910963E-013
 0.910965E-013
 0.910967E-013
 0.910969E-013
 0.910970E-013
 0.910972E-013
 0.910974E-013
 0.910976E-013
 0.910977E-013
 0.910979E-013
 0.910980E-013
 0.910982E-013
 0.910983E-013
 0.910985E-013
 0.910986E-013
 0.910987E-013
 0.910988E-013
 0.910988E-013
 0.910989E-013
 0.910990E-013
 0.910990E-013
 0.910990E-013
 0.910990E-013
 0.910990E-013
 0.910990E-013
 0.910989E-013
 0.910988E-013
 0.910988E-013
 0.910987E-013
 0.910986E-013
 0.910985E-013
 0.910983E-013
 0.910982E-013
 0.910980E-013
 0.910979E-013
 0.910977E-013
 0.910976E-013
 0.910974E-013
 0.910972E-013
 0.910970E-013
 0.910969E-013
 0.910967E-013
 0.910965E-013
 0.910963E-013
 0.910962E-013
 0.910960E-013
 0.910958E-013
 0.910957E-013
 0.910955E-013
 0.910954E-013
 0.910953E-013
 0.910951E-013
 0.910950E-013
 0.910949E-013
 0.910948E-013
 0.910947E-013
 0.910946E-013
 0.910945E-013
 0.910945E-013
 0.910944E-013
 0.910943E-013
 0.910943E-013
 0.910942E-013
 0.910942E-013
 0.910941E-013
 0.910941E-013
 0.910940E-013
 0.910940E-013
 0.910940E-013
 0.910940E-013
 0.910939E-013
 0.910939E-013
 0.910939E-013
 0.910939E-013
 0.910939E-013
 0.910939E-013
 0.910939E-013
 0.910939E-013
 0.910939E-013
 0.910939E-013
 0.910939E-013
 0.910939E-013
 0.910937E-013
 0.910972E-013
 0.910448E-013
 0.915798E-013
 0.916471E-013
 0.910379E-013
 0.910976E-013
 0.910937E-013
 0.910939E-013
 0.910938E-013
 0.910939E-013
 0.910939E-013
 0.910939E-013
 0.910939E-013
 0.910939E-013
 0.910939E-013
 0.910939E-013
 0.910939E-013
 0.910939E-013
 0.910940E-013
 0.910940E-013
 0.910940E-013
 0.910940E-013
 0.910941E-013
 0.910941E-013
 0.910942E-013
 0.910942E-013
 0.910943E-013
 0.910943E-013
 0.910944E-013
 0.910945E-013
 0.910946E-013
 0.910947E-013
 0.910948E-013
 0.910949E-013
 0.910950E-013
 0.910951E-013
 0.910953E-013
 0.910954E-013
 0.910955E-013
 0.910957E-013
 0.910959E-013
 0.910961E-013
 0.910962E-013
 0.910964E-013
 0.910966E-013
 0.910968E-013
 0.910970E-013
 0.910972E-013
 0.910974E-013
 0.910977E-013
 0.910979E-013
 0.910981E-013
 0.910983E-013
 0.910985E-013
 0.910987E-013
 0.910988E-013
 0.910990E-013
 0.910992E-013
 0.910993E-013
 0.910995E-013
 0.910996E-013
 0.910997E-013
 0.910998E-013
 0.910999E-013
 0.910999E-013
 0.911000E-013
 0.911000E-013
 0.911000E-013
 0.911000E-013
 0.910999E-013
 0.910999E-013
 0.910998E-013
 0.910997E-013
 0.910996E-013
 0.910995E-013
 0.910993E-013
 0.910992E-013
 0.910990E-013
 0.910989E-013
 0.910987E-013
 0.910985E-013
 0.910983E-013
 0.910981E-013
 0.910979E-013
 0.910977E-013
 0.910974E-013
 0.910972E-013
 0.910970E-013
 0.910968E-013
 0.910966E-013
 0.910964E-013
 0.910962E-013
 0.910961E-013
 0.910959E-013
 0.910957E-013
 0.910955E-013
 0.910954E-013
 0.910953E-013
 0.910951E-013
 0.910950E-013
 0.910949E-013
 0.910948E-013
 0.910947E-013
 0.910946E-013
 0.910945E-013
 0.910944E-013
 0.910943E-013
 0.910943E-013
 0.910942E-013
 0.910942E-013
 0.910941E-013
 0.910941E-013
 0.910940E-013
 0.910940E-013
 0.910940E-013
 0.910940E-013
 0.910939E-013
 0.910939E-013
 0.910939E-013
 0.910939E-013
 0.910939E-013
 0.910939E-013
 0.910939E-013
 0.910939E-013
 0.910939E-013
 0.910939E-013
 0.910939E-013
 0.910937E-013
 0.910977E-013
 0.910379E-013
 0.916470E-013
 0.917142E-013
 0.910311E-013
 0.910981E-013
 0.910936E-013
 0.910939E-013
 0.910939E-013
 0.910939E-013
 0.910939E-013
 0.910939E-013
 0.910939E-013
 0.910939E-013
 0.910939E-013
 0.910939E-013
 0.910939E-013
 0.910940E-013
 0.910940E-013
 0.910940E-013
 0.910940E-013
 0.910941E-013
 0.910941E-013
 0.910942E-013
 0.910942E-013
 0.910943E-013
 0.910944E-013
 0.910944E-013
 0.910945E-013
 0.910946E-013
 0.910947E-013
 0.910948E-013
 0.910949E-013
 0.910951E-013
 0.910952E-013
 0.910954E-013
 0.910955E-013
 0.910957E-013
 0.910959E-013
 0.910961E-013
 0.910963E-013
 0.910965E-013
 0.910967E-013
 0.910969E-013
 0.910971E-013
 0.910974E-013
 0.910976E-013
 0.910979E-013
 0.910981E-013
 0.910984E-013
 0.910986E-013
 0.910989E-013
 0.910991E-013
 0.910993E-013
 0.910996E-013
 0.910998E-013
 0.911000E-013
 0.911002E-013
 0.911004E-013
 0.911005E-013
 0.911007E-013
 0.911008E-013
 0.911009E-013
 0.911010E-013
 0.911011E-013
 0.911011E-013
 0.911012E-013
 0.911012E-013
 0.911011E-013
 0.911011E-013
 0.911010E-013
 0.911009E-013
 0.911008E-013
 0.911007E-013
 0.911005E-013
 0.911004E-013
 0.911002E-013
 0.911000E-013
 0.910998E-013
 0.910996E-013
 0.910993E-013
 0.910991E-013
 0.910989E-013
 0.910986E-013
 0.910984E-013
 0.910981E-013
 0.910979E-013
 0.910976E-013
 0.910974E-013
 0.910972E-013
 0.910969E-013
 0.910967E-013
 0.910965E-013
 0.910963E-013
 0.910961E-013
 0.910959E-013
 0.910957E-013
 0.910955E-013
 0.910954E-013
 0.910952E-013
 0.910951E-013
 0.910949E-013
 0.910948E-013
 0.910947E-013
 0.910946E-013
 0.910945E-013
 0.910944E-013
 0.910944E-013
 0.910943E-013
 0.910942E-013
 0.910942E-013
 0.910941E-013
 0.910941E-013
 0.910941E-013
 0.910940E-013
 0.910940E-013
 0.910940E-013
 0.910939E-013
 0.910939E-013
 0.910939E-013
 0.910939E-013
 0.910939E-013
 0.910939E-013
 0.910939E-013
 0.910939E-013
 0.910939E-013
 0.910939E-013
 0.910936E-013
 0.910981E-013
 0.910311E-013
 0.917140E-013
 0.917812E-013
 0.910243E-013
 0.910986E-013
 0.910936E-013
 0.910939E-013
 0.910939E-013
 0.910939E-013
 0.910939E-013
 0.910939E-013
 0.910939E-013
 0.910939E-013
 0.910939E-013
 0.910939E-013
 0.910940E-013
 0.910940E-013
 0.910940E-013
 0.910941E-013
 0.910941E-013
 0.910941E-013
 0.910942E-013
 0.910942E-013
 0.910943E-013
 0.910944E-013
 0.910945E-013
 0.910946E-013
 0.910947E-013
 0.910948E-013
 0.910949E-013
 0.910950E-013
 0.910952E-013
 0.910953E-013
 0.910955E-013
 0.910957E-013
 0.910958E-013
 0.910960E-013
 0.910963E-013
 0.910965E-013
 0.910967E-013
 0.910970E-013
 0.910972E-013
 0.910975E-013
 0.910978E-013
 0.910980E-013
 0.910983E-013
 0.910986E-013
 0.910989E-013
 0.910992E-013
 0.910995E-013
 0.910998E-013
 0.911001E-013
 0.911004E-013
 0.911006E-013
 0.911009E-013
 0.911011E-013
 0.911014E-013
 0.911016E-013
 0.911018E-013
 0.911020E-013
 0.911021E-013
 0.911022E-013
 0.911023E-013
 0.911024E-013
 0.911025E-013
 0.911025E-013
 0.911025E-013
 0.911025E-013
 0.911024E-013
 0.911023E-013
 0.911022E-013
 0.911021E-013
 0.911020E-013
 0.911018E-013
 0.911016E-013
 0.911014E-013
 0.911011E-013
 0.911009E-013
 0.911006E-013
 0.911004E-013
 0.911001E-013
 0.910998E-013
 0.910995E-013
 0.910992E-013
 0.910989E-013
 0.910986E-013
 0.910983E-013
 0.910981E-013
 0.910978E-013
 0.910975E-013
 0.910972E-013
 0.910970E-013
 0.910967E-013
 0.910965E-013
 0.910963E-013
 0.910960E-013
 0.910958E-013
 0.910957E-013
 0.910955E-013
 0.910953E-013
 0.910952E-013
 0.910950E-013
 0.910949E-013
 0.910948E-013
 0.910947E-013
 0.910946E-013
 0.910945E-013
 0.910944E-013
 0.910943E-013
 0.910943E-013
 0.910942E-013
 0.910941E-013
 0.910941E-013
 0.910941E-013
 0.910940E-013
 0.910940E-013
 0.910940E-013
 0.910939E-013
 0.910939E-013
 0.910939E-013
 0.910939E-013
 0.910939E-013
 0.910939E-013
 0.910939E-013
 0.910939E-013
 0.910939E-013
 0.910936E-013
 0.910986E-013
 0.910243E-013
 0.917810E-013
 0.918482E-013
 0.910175E-013
 0.910990E-013
 0.910936E-013
 0.910939E-013
 0.910939E-013
 0.910939E-013
 0.910939E-013
 0.910939E-013
 0.910939E-013
 0.910939E-013
 0.910939E-013
 0.910940E-013
 0.910940E-013
 0.910940E-013
 0.910941E-013
 0.910941E-013
 0.910941E-013
 0.910942E-013
 0.910943E-013
 0.910943E-013
 0.910944E-013
 0.910945E-013
 0.910946E-013
 0.910947E-013
 0.910948E-013
 0.910949E-013
 0.910951E-013
 0.910952E-013
 0.910954E-013
 0.910956E-013
 0.910958E-013
 0.910960E-013
 0.910962E-013
 0.910964E-013
 0.910967E-013
 0.910970E-013
 0.910972E-013
 0.910975E-013
 0.910978E-013
 0.910982E-013
 0.910985E-013
 0.910988E-013
 0.910992E-013
 0.910995E-013
 0.910998E-013
 0.911002E-013
 0.911005E-013
 0.911009E-013