# vtk DataFile Version 3.0
Solution data
ASCII
DATASET STRUCTURED_GRID
DIMENSIONS 128 128 1
POINTS 16384  double
      0.000004      0.000004      0.000000
      0.000012      0.000004      0.000000
      0.000020      0.000004      0.000000
      0.000027      0.000004      0.000000
      0.000035      0.000004      0.000000
      0.000043      0.000004      0.000000
      0.000051      0.000004      0.000000
      0.000059      0.000004      0.000000
      0.000066      0.000004      0.000000
      0.000074      0.000004      0.000000
      0.000082      0.000004      0.000000
      0.000090      0.000004      0.000000
      0.000098      0.000004      0.000000
      0.000105      0.000004      0.000000
      0.000113      0.000004      0.000000
      0.000121      0.000004      0.000000
      0.000129      0.000004      0.000000
      0.000137      0.000004      0.000000
      0.000145      0.000004      0.000000
      0.000152      0.000004      0.000000
      0.000160      0.000004      0.000000
      0.000168      0.000004      0.000000
      0.000176      0.000004      0.000000
      0.000184      0.000004      0.000000
      0.000191      0.000004      0.000000
      0.000199      0.000004      0.000000
      0.000207      0.000004      0.000000
      0.000215      0.000004      0.000000
      0.000223      0.000004      0.000000
      0.000230      0.000004      0.000000
      0.000238      0.000004      0.000000
      0.000246      0.000004      0.000000
      0.000254      0.000004      0.000000
      0.000262      0.000004      0.000000
      0.000270      0.000004      0.000000
      0.000277      0.000004      0.000000
      0.000285      0.000004      0.000000
      0.000293      0.000004      0.000000
      0.000301      0.000004      0.000000
      0.000309      0.000004      0.000000
      0.000316      0.000004      0.000000
      0.000324      0.000004      0.000000
      0.000332      0.000004      0.000000
      0.000340      0.000004      0.000000
      0.000348      0.000004      0.000000
      0.000355      0.000004      0.000000
      0.000363      0.000004      0.000000
      0.000371      0.000004      0.000000
      0.000379      0.000004      0.000000
      0.000387      0.000004      0.000000
      0.000395      0.000004      0.000000
      0.000402      0.000004      0.000000
      0.000410      0.000004      0.000000
      0.000418      0.000004      0.000000
      0.000426      0.000004      0.000000
      0.000434      0.000004      0.000000
      0.000441      0.000004      0.000000
      0.000449      0.000004      0.000000
      0.000457      0.000004      0.000000
      0.000465      0.000004      0.000000
      0.000473      0.000004      0.000000
      0.000480      0.000004      0.000000
      0.000488      0.000004      0.000000
      0.000496      0.000004      0.000000
      0.000504      0.000004      0.000000
      0.000512      0.000004      0.000000
      0.000520      0.000004      0.000000
      0.000527      0.000004      0.000000
      0.000535      0.000004      0.000000
      0.000543      0.000004      0.000000
      0.000551      0.000004      0.000000
      0.000559      0.000004      0.000000
      0.000566      0.000004      0.000000
      0.000574      0.000004      0.000000
      0.000582      0.000004      0.000000
      0.000590      0.000004      0.000000
      0.000598      0.000004      0.000000
      0.000605      0.000004      0.000000
      0.000613      0.000004      0.000000
      0.000621      0.000004      0.000000
      0.000629      0.000004      0.000000
      0.000637      0.000004      0.000000
      0.000645      0.000004      0.000000
      0.000652      0.000004      0.000000
      0.000660      0.000004      0.000000
      0.000668      0.000004      0.000000
      0.000676      0.000004      0.000000
      0.000684      0.000004      0.000000
      0.000691      0.000004      0.000000
      0.000699      0.000004      0.000000
      0.000707      0.000004      0.000000
      0.000715      0.000004      0.000000
      0.000723      0.000004      0.000000
      0.000730      0.000004      0.000000
      0.000738      0.000004      0.000000
      0.000746      0.000004      0.000000
      0.000754      0.000004      0.000000
      0.000762      0.000004      0.000000
      0.000770      0.000004      0.000000
      0.000777      0.000004      0.000000
      0.000785      0.000004      0.000000
      0.000793      0.000004      0.000000
      0.000801      0.000004      0.000000
      0.000809      0.000004      0.000000
      0.000816      0.000004      0.000000
      0.000824      0.000004      0.000000
      0.000832      0.000004      0.000000
      0.000840      0.000004      0.000000
      0.000848      0.000004      0.000000
      0.000855      0.000004      0.000000
      0.000863      0.000004      0.000000
      0.000871      0.000004      0.000000
      0.000879      0.000004      0.000000
      0.000887      0.000004      0.000000
      0.000895      0.000004      0.000000
      0.000902      0.000004      0.000000
      0.000910      0.000004      0.000000
      0.000918      0.000004      0.000000
      0.000926      0.000004      0.000000
      0.000934      0.000004      0.000000
      0.000941      0.000004      0.000000
      0.000949      0.000004      0.000000
      0.000957      0.000004      0.000000
      0.000965      0.000004      0.000000
      0.000973      0.000004      0.000000
      0.000980      0.000004      0.000000
      0.000988      0.000004      0.000000
      0.000996      0.000004      0.000000
      0.000004      0.000012      0.000000
      0.000012      0.000012      0.000000
      0.000020      0.000012      0.000000
      0.000027      0.000012      0.000000
      0.000035      0.000012      0.000000
      0.000043      0.000012      0.000000
      0.000051      0.000012      0.000000
      0.000059      0.000012      0.000000
      0.000066      0.000012      0.000000
      0.000074      0.000012      0.000000
      0.000082      0.000012      0.000000
      0.000090      0.000012      0.000000
      0.000098      0.000012      0.000000
      0.000105      0.000012      0.000000
      0.000113      0.000012      0.000000
      0.000121      0.000012      0.000000
      0.000129      0.000012      0.000000
      0.000137      0.000012      0.000000
      0.000145      0.000012      0.000000
      0.000152      0.000012      0.000000
      0.000160      0.000012      0.000000
      0.000168      0.000012      0.000000
      0.000176      0.000012      0.000000
      0.000184      0.000012      0.000000
      0.000191      0.000012      0.000000
      0.000199      0.000012      0.000000
      0.000207      0.000012      0.000000
      0.000215      0.000012      0.000000
      0.000223      0.000012      0.000000
      0.000230      0.000012      0.000000
      0.000238      0.000012      0.000000
      0.000246      0.000012      0.000000
      0.000254      0.000012      0.000000
      0.000262      0.000012      0.000000
      0.000270      0.000012      0.000000
      0.000277      0.000012      0.000000
      0.000285      0.000012      0.000000
      0.000293      0.000012      0.000000
      0.000301      0.000012      0.000000
      0.000309      0.000012      0.000000
      0.000316      0.000012      0.000000
      0.000324      0.000012      0.000000
      0.000332      0.000012      0.000000
      0.000340      0.000012      0.000000
      0.000348      0.000012      0.000000
      0.000355      0.000012      0.000000
      0.000363      0.000012      0.000000
      0.000371      0.000012      0.000000
      0.000379      0.000012      0.000000
      0.000387      0.000012      0.000000
      0.000395      0.000012      0.000000
      0.000402      0.000012      0.000000
      0.000410      0.000012      0.000000
      0.000418      0.000012      0.000000
      0.000426      0.000012      0.000000
      0.000434      0.000012      0.000000
      0.000441      0.000012      0.000000
      0.000449      0.000012      0.000000
      0.000457      0.000012      0.000000
      0.000465      0.000012      0.000000
      0.000473      0.000012      0.000000
      0.000480      0.000012      0.000000
      0.000488      0.000012      0.000000
      0.000496      0.000012      0.000000
      0.000504      0.000012      0.000000
      0.000512      0.000012      0.000000
      0.000520      0.000012      0.000000
      0.000527      0.000012      0.000000
      0.000535      0.000012      0.000000
      0.000543      0.000012      0.000000
      0.000551      0.000012      0.000000
      0.000559      0.000012      0.000000
      0.000566      0.000012      0.000000
      0.000574      0.000012      0.000000
      0.000582      0.000012      0.000000
      0.000590      0.000012      0.000000
      0.000598      0.000012      0.000000
      0.000605      0.000012      0.000000
      0.000613      0.000012      0.000000
      0.000621      0.000012      0.000000
      0.000629      0.000012      0.000000
      0.000637      0.000012      0.000000
      0.000645      0.000012      0.000000
      0.000652      0.000012      0.000000
      0.000660      0.000012      0.000000
      0.000668      0.000012      0.000000
      0.000676      0.000012      0.000000
      0.000684      0.000012      0.000000
      0.000691      0.000012      0.000000
      0.000699      0.000012      0.000000
      0.000707      0.000012      0.000000
      0.000715      0.000012      0.000000
      0.000723      0.000012      0.000000
      0.000730      0.000012      0.000000
      0.000738      0.000012      0.000000
      0.000746      0.000012      0.000000
      0.000754      0.000012      0.000000
      0.000762      0.000012      0.000000
      0.000770      0.000012      0.000000
      0.000777      0.000012      0.000000
      0.000785      0.000012      0.000000
[...]
POINT_DATA 16384
SCALARS rhoe double
LOOKUP_TABLE default
 0.915518E-013
 0.913029E-013
 0.915183E-013
 0.915884E-013
 0.916949E-013
 0.917935E-013
 0.918933E-013
 0.919926E-013
 0.920916E-013
 0.921904E-013
 0.922888E-013
 0.923870E-013
 0.924849E-013
 0.925824E-013
 0.926796E-013
 0.927765E-013
 0.928729E-013
 0.929689E-013
 0.930645E-013
 0.931596E-013
 0.932542E-013
 0.933482E-013
 0.934416E-013
 0.935343E-013
 0.936264E-013
 0.937177E-013
 0.938082E-013
 0.938978E-013
 0.939865E-013
 0.940742E-013
 0.941608E-013
 0.942463E-013
 0.943306E-013
 0.944135E-013
 0.944951E-013
 0.945752E-013
 0.946537E-013
 0.947306E-013
 0.948058E-013
 0.948791E-013
 0.949505E-013
 0.950198E-013
 0.950871E-013
 0.951521E-013
 0.952147E-013
 0.952750E-013
 0.953327E-013
 0.953879E-013
 0.954403E-013
 0.954900E-013
 0.955368E-013
 0.955806E-013
 0.956214E-013
 0.956590E-013
 0.956935E-013
 0.957247E-013
 0.957527E-013
 0.957772E-013
 0.957983E-013
 0.958160E-013
 0.958302E-013
 0.958409E-013
 0.958480E-013
 0.958516E-013
 0.958516E-013
 0.958480E-013
 0.958409E-013
 0.958302E-013
 0.958160E-013
 0.957983E-013
 0.957772E-013
 0.957526E-013
 0.957247E-013
 0.956935E-013
 0.956590E-013
 0.956213E-013
 0.955806E-013
 0.955367E-013
 0.954900E-013
 0.954403E-013
 0.953878E-013
 0.953327E-013
 0.952750E-013
 0.952147E-013
 0.951520E-013
 0.950870E-013
 0.950198E-013
 0.949504E-013
 0.948790E-013
 0.948057E-013
 0.947306E-013
 0.946537E-013
 0.945751E-013
 0.944950E-013
 0.944135E-013
 0.943305E-013
 0.942462E-013
 0.941608E-013
 0.940741E-013
 0.939864E-013
 0.938977E-013
 0.938081E-013
 0.937176E-013
 0.936263E-013
 0.935343E-013
 0.934415E-013
 0.933481E-013
 0.932541E-013
 0.931595E-013
 0.930644E-013
 0.929689E-013
 0.928729E-013
 0.927764E-013
 0.926796E-013
 0.925824E-013
 0.924848E-013
 0.923870E-013
 0.922888E-013
 0.921903E-013
 0.920916E-013
 0.919925E-013
 0.918932E-013
 0.917935E-013
 0.916949E-013
 0.915884E-013
 0.915183E-013
 0.913029E-013
 0.915518E-013
 0.913029E-013
 0.908562E-013
 0.909640E-013
 0.908754E-013
 0.908408E-013
 0.907943E-013
 0.907502E-013
 0.907058E-013
 0.906617E-013
 0.906176E-013
 0.905737E-013
 0.905299E-013
 0.904863E-013
 0.904428E-013
 0.903995E-013
 0.903564E-013
 0.903134E-013
 0.902706E-013
 0.902281E-013
 0.901857E-013
 0.901436E-013
 0.901018E-013
 0.900602E-013
 0.900189E-013
 0.899779E-013
 0.899373E-013
 0.898970E-013
 0.898572E-013
 0.898177E-013
 0.897787E-013
 0.897402E-013
 0.897022E-013
 0.896647E-013
 0.896278E-013
 0.895916E-013
 0.895560E-013
 0.895211E-013
 0.894869E-013
 0.894535E-013
 0.894209E-013
 0.893892E-013
 0.893584E-013
 0.893285E-013
 0.892996E-013
 0.892718E-013
 0.892450E-013
 0.892194E-013
 0.891949E-013
 0.891716E-013
 0.891495E-013
 0.891288E-013
 0.891093E-013
 0.890912E-013
 0.890745E-013
 0.890592E-013
 0.890453E-013
 0.890329E-013
 0.890220E-013
 0.890127E-013
 0.890048E-013
 0.889985E-013
 0.889938E-013
 0.889906E-013
 0.889890E-013
 0.889890E-013
 0.889906E-013
 0.889938E-013
 0.889985E-013
 0.890048E-013
 0.890127E-013
 0.890221E-013
 0.890330E-013
 0.890454E-013
 0.890592E-013
 0.890745E-013
 0.890913E-013
 0.891094E-013
 0.891288E-013
 0.891496E-013
 0.891717E-013
 0.891950E-013
 0.892195E-013
 0.892451E-013
 0.892719E-013
 0.892997E-013
 0.893286E-013
 0.893585E-013
 0.893893E-013
 0.894210E-013
 0.894536E-013
 0.894870E-013
 0.895211E-013
 0.895561E-013
 0.895917E-013
 0.896279E-013
 0.896648E-013
 0.897023E-013
 0.897403E-013
 0.897788E-013
 0.898178E-013
 0.898573E-013
 0.898971E-013
 0.899374E-013
 0.899780E-013
 0.900190E-013
 0.900603E-013
 0.901019E-013
 0.901437E-013
 0.901858E-013
 0.902281E-013
 0.902707E-013
 0.903135E-013
 0.903564E-013
 0.903996E-013
 0.904429E-013
 0.904864E-013
 0.905300E-013
 0.905738E-013
 0.906177E-013
 0.906617E-013
 0.907059E-013
 0.907502E-013
 0.907944E-013
 0.908408E-013
 0.908754E-013
 0.909641E-013
 0.908562E-013
 0.913029E-013
 0.915183E-013
 0.909640E-013
 0.911945E-013
 0.911463E-013
 0.911749E-013
 0.911863E-013
 0.912009E-013
 0.912149E-013
 0.912289E-013
 0.912429E-013
 0.912569E-013
 0.912708E-013
 0.912847E-013
 0.912985E-013
 0.913122E-013
 0.913259E-013
 0.913396E-013
 0.913532E-013
 0.913667E-013
 0.913801E-013
 0.913935E-013
 0.914068E-013
 0.914200E-013
 0.914331E-013
 0.914461E-013
 0.914590E-013
 0.914718E-013
 0.914844E-013
 0.914969E-013
 0.915093E-013
 0.915216E-013
 0.915336E-013
 0.915455E-013
 0.915572E-013
 0.915687E-013
 0.915800E-013
 0.915911E-013
 0.916020E-013
 0.916126E-013
 0.916229E-013
 0.916330E-013
 0.916427E-013
 0.916522E-013
 0.916614E-013
 0.916702E-013
 0.916787E-013
 0.916869E-013
 0.916946E-013
 0.917020E-013
 0.917090E-013
 0.917156E-013
 0.917218E-013
 0.917275E-013
 0.917328E-013
 0.917377E-013
 0.917421E-013
 0.917460E-013
 0.917495E-013
 0.917525E-013
 0.917550E-013
 0.917570E-013
 0.917585E-013
 0.917595E-013
 0.917600E-013
 0.917600E-013
 0.917595E-013
 0.917585E-013
 0.917570E-013
 0.917550E-013
 0.917525E-013
 0.917495E-013
 0.917460E-013
 0.917421E-013
 0.917377E-013
 0.917328E-013
 0.917275E-013
 0.917218E-013
 0.917156E-013
 0.917090E-013
 0.917020E-013
 0.916946E-013
 0.916868E-013
 0.916787E-013
 0.916702E-013
 0.916614E-013
 0.916522E-013
 0.916427E-013
 0.916329E-013
 0.916229E-013
 0.916125E-013
 0.916019E-013
 0.915911E-013
 0.915800E-013
 0.915687E-013
 0.915572E-013
 0.915455E-013
 0.915336E-013
 0.915215E-013
 0.915093E-013
 0.914969E-013
 0.914844E-013
 0.914717E-013
 0.914589E-013
 0.914460E-013
 0.914330E-013
 0.914199E-013
 0.914067E-013
 0.913935E-013
 0.913801E-013
 0.913666E-013
 0.913531E-013
 0.913395E-013
 0.913259E-013
 0.913122E-013
 0.912984E-013
 0.912846E-013
 0.912708E-013
 0.912569E-013
 0.912429E-013
 0.912289E-013
 0.912149E-013
 0.912009E-013
 0.911863E-013
 0.911749E-013
 0.911463E-013
 0.911944E-013
 0.909641E-013
 0.915183E-013
 0.915884E-013
 0.908754E-013
 0.911463E-013
 0.910629E-013
 0.910779E-013
 0.910709E-013
 0.910680E-013
 0.910645E-013
 0.910611E-013
 0.910576E-013
 0.910542E-013
 0.910508E-013
 0.910474E-013
 0.910440E-013
 0.910407E-013
 0.910373E-013
 0.910340E-013
 0.910306E-013
 0.910273E-013
 0.910241E-013
 0.910208E-013
 0.910175E-013
 0.910143E-013
 0.910111E-013
 0.910079E-013
 0.910048E-013
 0.910017E-013
 0.909986E-013
 0.909955E-013
 0.909925E-013
 0.909895E-013
 0.909866E-013
 0.909837E-013
 0.909808E-013
 0.909780E-013
 0.909753E-013
 0.909726E-013
 0.909700E-013
 0.909674E-013
 0.909649E-013
 0.909624E-013
 0.909600E-013
 0.909577E-013
 0.909555E-013
 0.909534E-013
 0.909513E-013
 0.909493E-013
 0.909474E-013
 0.909457E-013
 0.909440E-013
 0.909424E-013
 0.909409E-013
 0.909395E-013
 0.909382E-013
 0.909370E-013
 0.909359E-013
 0.909350E-013
 0.909341E-013
 0.909334E-013
 0.909328E-013
 0.909323E-013
 0.909320E-013
 0.909317E-013
 0.909316E-013
 0.909316E-013
 0.909317E-013
 0.909320E-013
 0.909323E-013
 0.909328E-013
 0.909334E-013
 0.909342E-013
 0.909350E-013
 0.909359E-013
 0.909370E-013
 0.909382E-013
 0.909395E-013
 0.909409E-013
 0.909424E-013
 0.909440E-013
 0.909457E-013
 0.909475E-013
 0.909493E-013
 0.909513E-013
 0.909534E-013
 0.909555E-013
 0.909577E-013
 0.909601E-013
 0.909624E-013
 0.909649E-013
 0.909674E-013
 0.909700E-013
 0.909726E-013
 0.909753E-013
 0.909781E-013
 0.909809E-013
 0.909837E-013
 0.909866E-013
 0.909895E-013
 0.909925E-013
 0.909955E-013
 0.909986E-013
 0.910017E-013
 0.910048E-013
 0.910080E-013
 0.910111E-013
 0.910143E-013
 0.910176E-013
 0.910208E-013
 0.910241E-013
 0.910274E-013
 0.910307E-013
 0.910340E-013
 0.910373E-013
 0.910407E-013
 0.910440E-013
 0.910474E-013
 0.910508E-013
 0.910542E-013
 0.910576E-013
 0.910611E-013
 0.910645E-013
 0.910680E-013
 0.910709E-013
 0.910779E-013
 0.910629E-013
 0.911463E-013
 0.908754E-013
 0.915884E-013
 0.916949E-013
 0.908408E-013
 0.911749E-013
 0.910779E-013
 0.911013E-013
 0.910976E-013
 0.910990E-013
 0.910996E-013
 0.911003E-013
 0.911010E-013
 0.911017E-013
 0.911023E-013
 0.911030E-013
 0.911037E-013
 0.911044E-013
 0.911050E-013
 0.911057E-013
 0.911064E-013
 0.911070E-013
 0.911077E-013
 0.911083E-013
 0.911090E-013
 0.911096E-013
 0.911102E-013
 0.911109E-013
 0.911115E-013
 0.911121E-013
 0.911127E-013
 0.911133E-013
 0.911139E-013
 0.911145E-013
 0.911151E-013
 0.911157E-013
 0.911163E-013
 0.911168E-013
 0.911174E-013
 0.911179E-013
 0.911185E-013
 0.911190E-013
 0.911195E-013
 0.911200E-013
 0.911205E-013
 0.911209E-013
 0.911214E-013
 0.911218E-013
 0.911222E-013
 0.911226E-013
 0.911230E-013
 0.911234E-013
 0.911237E-013
 0.911240E-013
 0.911243E-013
 0.911246E-013
 0.911249E-013
 0.911251E-013
 0.911253E-013
 0.911255E-013
 0.911257E-013
 0.911259E-013
 0.911260E-013
 0.911261E-013
 0.911262E-013
 0.911262E-013
 0.911262E-013
 0.911262E-013
 0.911262E-013
 0.911262E-013
 0.911261E-013
 0.911260E-013
 0.911259E-013
 0.911257E-013
 0.911255E-013
 0.911253E-013
 0.911251E-013
 0.911249E-013
 0.911246E-013
 0.911243E-013
 0.911240E-013
 0.911237E-013
 0.911234E-013
 0.911230E-013
 0.911226E-013
 0.911222E-013
 0.911218E-013
 0.911214E-013
 0.911209E-013
 0.911205E-013
 0.911200E-013
 0.911195E-013
 0.911190E-013
 0.911185E-013
 0.911179E-013
 0.911174E-013
 0.911168E-013
 0.911163E-013
 0.911157E-013
 0.911151E-013
 0.911145E-013
 0.911139E-013
 0.911133E-013
 0.911127E-013
 0.911121E-013
 0.911115E-013
 0.911109E-013
 0.911102E-013
 0.911096E-013
 0.911090E-013
 0.911083E-013
 0.911077E-013
 0.911070E-013
 0.911064E-013
 0.911057E-013
 0.911050E-013
 0.911044E-013
 0.911037E-013
 0.911030E-013
 0.911023E-013
 0.911017E-013
 0.911010E-013
 0.911003E-013
 0.910996E-013
 0.910990E-013
 0.910976E-013
 0.911013E-013
 0.910779E-013
 0.911749E-013
 0.908408E-013
 0.916949E-013
 0.917935E-013
 0.907943E-013
 0.911863E-013
 0.910709E-013
 0.910976E-013
 0.910924E-013
 0.910931E-013
 0.910929E-013
 0.910928E-013
 0.910926E-013
 0.910925E-013
 0.910924E-013
 0.910923E-013
 0.910922E-013
 0.910921E-013
 0.910920E-013
 0.910918E-013
 0.910917E-013
 0.910916E-013
 0.910915E-013
 0.910914E-013
 0.910913E-013
 0.910912E-013
 0.910911E-013
 0.910910E-013
 0.910909E-013
 0.910908E-013
 0.910907E-013
 0.910906E-013
 0.910905E-013
 0.910904E-013
 0.910903E-013
 0.910902E-013
 0.910901E-013
 0.910900E-013
 0.910900E-013
 0.910899E-013
 0.910898E-013
 0.910897E-013
 0.910896E-013
 0.910896E-013
 0.910895E-013
 0.910894E-013
 0.910894E-013
 0.910893E-013
 0.910892E-013
 0.910892E-013
 0.910891E-013
 0.910891E-013
 0.910890E-013
 0.910890E-013
 0.910889E-013
 0.910889E-013
 0.910889E-013
 0.910888E-013
 0.910888E-013
 0.910888E-013
 0.910888E-013
 0.910887E-013
 0.910887E-013
 0.910887E-013
 0.910887E-013
 0.910887E-013
 0.910887E-013
 0.910887E-013
 0.910887E-013
 0.910887E-013
 0.910887E-013
 0.910887E-013
 0.910887E-013
 0.910888E-013
 0.910888E-013
 0.910888E-013
 0.910888E-013
 0.910889E-013
 0.910889E-013
 0.910889E-013
 0.910890E-013
 0.910890E-013
 0.910891E-013
 0.910891E-013
 0.910892E-013
 0.910892E-013
 0.910893E-013
 0.910894E-013
 0.910894E-013
 0.910895E-013
 0.910896E-013
 0.910896E-013
 0.910897E-013
 0.910898E-013
 0.910899E-013
 0.910900E-013
 0.910900E-013
 0.910901E-013
 0.910902E-013
 0.910903E-013
 0.910904E-013
 0.910905E-013
 0.910906E-013
 0.910907E-013
 0.910908E-013
 0.910909E-013
 0.910910E-013
 0.910911E-013
 0.910912E-013
 0.910913E-013
 0.910914E-013
 0.910915E-013
 0.910916E-013
 0.910917E-013
 0.910919E-013
 0.910920E-013
 0.910921E-013
 0.910922E-013
 0.910923E-013
 0.910924E-013
 0.910925E-013
 0.910926E-013
 0.910928E-013
 0.910929E-013
 0.910931E-013
 0.910924E-013
 0.910976E-013
 0.910709E-013
 0.911863E-013
 0.907944E-013
 0.917935E-013
 0.918933E-013
 0.907502E-013
 0.912009E-013
 0.910680E-013
 0.910990E-013
 0.910931E-013
 0.910941E-013
 0.910940E-013
 0.910940E-013
 0.910940E-013
 0.910940E-013
 0.910940E-013
 0.910940E-013
 0.910941E-013
 0.910941E-013
 0.910941E-013
 0.910941E-013
 0.910941E-013
 0.910941E-013
 0.910942E-013
 0.910942E-013
 0.910942E-013
 0.910942E-013
 0.910942E-013
 0.910942E-013
 0.910943E-013
 0.910943E-013
 0.910943E-013
 0.910943E-013
 0.910943E-013
 0.910944E-013
 0.910944E-013
 0.910944E-013
 0.910944E-013
 0.910944E-013
 0.910945E-013
 0.910945E-013
 0.910945E-013
 0.910945E-013
 0.910945E-013
 0.910946E-013
 0.910946E-013
 0.910946E-013
 0.910946E-013
 0.910946E-013
 0.910947E-013
 0.910947E-013
 0.910947E-013
 0.910947E-013
 0.910947E-013
 0.910948E-013
 0.910948E-013
 0.910948E-013
 0.910948E-013
 0.910948E-013
 0.910948E-013
 0.910948E-013
 0.910949E-013
 0.910949E-013
 0.910949E-013
 0.910949E-013
 0.910949E-013
 0.910949E-013
 0.910949E-013
 0.910949E-013
 0.910949E-013
 0.910949E-013
 0.910949E-013
 0.910949E-013
 0.910949E-013
 0.910949E-013
 0.910948E-013
 0.910948E-013
 0.910948E-013
 0.910948E-013
 0.910948E-013
 0.910948E-013
 0.910948E-013
 0.910947E-013
 0.910947E-013
 0.910947E-013
 0.910947E-013
 0.910947E-013
 0.910946E-013
 0.910946E-013
 0.910946E-013
 0.910946E-013
 0.910946E-013
 0.910945E-013
 0.910945E-013
 0.910945E-013
 0.910945E-013
 0.910945E-013
 0.910944E-013
 0.910944E-013
 0.910944E-013
 0.910944E-013
 0.910944E-013
 0.910943E-013
 0.910943E-013
 0.910943E-013
 0.910943E-013
 0.910943E-013
 0.910943E-013
 0.910942E-013
 0.910942E-013
 0.910942E-013
 0.910942E-013
 0.910942E-013
 0.910941E-013
 0.910941E-013
 0.910941E-013
 0.910941E-013
 0.910941E-013
 0.910941E-013
 0.910941E-013
 0.910940E-013
 0.910940E-013
 0.910940E-013
 0.910940E-013
 0.910940E-013
 0.910941E-013
 0.910931E-013
 0.910990E-013
 0.910680E-013
 0.912009E-013
 0.907502E-013
 0.918932E-013
 0.919926E-013
 0.907058E-013
 0.912149E-013
 0.910645E-013
 0.910996E-013
 0.910929E-013
 0.910940E-013
 0.910938E-013
 0.910938E-013
 0.910938E-013
 0.910938E-013
 0.910938E-013
 0.910938E-013
 0.910938E-013
 0.910938E-013
 0.910938E-013
 0.910938E-013
 0.910938E-013
 0.910938E-013
 0.910938E-013
 0.910938E-013
 0.910938E-013
 0.910938E-013
 0.910938E-013
 0.910938E-013
 0.910938E-013
 0.910938E-013
 0.910938E-013
 0.910938E-013
 0.910938E-013
 0.910938E-013
 0.910938E-013
 0.910938E-013
 0.910938E-013
 0.910938E-013
 0.910938E-013
 0.910938E-013
 0.910939E-013
 0.910939E-013
 0.910939E-013
 0.910939E-013
 0.910939E-013
 0.910939E-013
 0.910939E-013
 0.910939E-013
 0.910939E-013
 0.910939E-013
 0.910940E-013
 0.910940E-013
 0.910940E-013
 0.910940E-013
 0.910940E-013
 0.910940E-013
 0.910940E-013
 0.910940E-013
 0.910940E-013
 0.910940E-013
 0.910940E-013
 0.910941E-013
 0.910941E-013
 0.910941E-013
 0.910941E-013
 0.910941E-013
 0.910941E-013
 0.910941E-013
 0.910941E-013
 0.910941E-013
 0.910941E-013
 0.910941E-013
 0.910941E-013
 0.910940E-013
 0.910940E-013
 0.910940E-013
 0.910940E-013
 0.910940E-013
 0.910940E-013
 0.910940E-013
 0.910940E-013
 0.910940E-013
 0.910940E-013
 0.910940E-013
 0.910939E-013
 0.910939E-013
 0.910939E-013
 0.910939E-013
 0.910939E-013
 0.910939E-013
 0.910939E-013
 0.910939E-013
 0.910939E-013
 0.910939E-013
 0.910938E-013
 0.910938E-013
 0.910938E-013
 0.910938E-013
 0.910938E-013
 0.910938E-013
 0.910938E-013
 0.910938E-013
 0.910938E-013
 0.910938E-013
 0.910938E-013
 0.910938E-013
 0.910938E-013
 0.910938E-013
 0.910938E-013
 0.910938E-013
 0.910938E-013
 0.910938E-013
 0.910938E-013
 0.910938E-013
 0.910938E-013
 0.910938E-013
 0.910938E-013
 0.910938E-013
 0.910938E-013
 0.910938E-013
 0.910938E-013
 0.910938E-013
 0.910938E-013
 0.910938E-013
 0.910940E-013
 0.910929E-013
 0.910996E-013
 0.910645E-013
 0.912149E-013
 0.907059E-013
 0.919925E-013
 0.920916E-013
 0.906617E-013
 0.912289E-013
 0.910611E-013
 0.911003E-013
 0.910928E-013
 0.910940E-013
 0.910938E-013
 0.910938E-013
 0.910938E-013
 0.910938E-013
 0.910938E-013
 0.910938E-013
 0.910938E-013
 0.910938E-013
 0.910938E-013
 0.910938E-013
 0.910938E-013
 0.910938E-013
 0.910938E-013
 0.910938E-013
 0.910938E-013
 0.910938E-013
 0.910938E-013
 0.910939E-013
 0.910939E-013
 0.910939E-013
 0.910939E-013
 0.910939E-013
 0.910939E-013
 0.910939E-013
 0.910939E-013
 0.910939E-013
 0.910939E-013
 0.910939E-013
 0.910939E-013
 0.910939E-013
 0.910940E-013
 0.910940E-013
 0.910940E-013
 0.910940E-013
 0.910940E-013
 0.910940E-013
 0.910940E-013
 0.910940E-013
 0.910941E-013
 0.910941E-013
 0.910941E-013
 0.910941E-013
 0.910941E-013
 0.910941E-013
 0.910941E-013
 0.910942E-013
 0.910942E-013
 0.910942E-013
 0.910942E-013
 0.910942E-013
 0.910942E-013
 0.910942E-013
 0.910942E-013
 0.910942E-013
 0.910942E-013
 0.910942E-013
 0.910942E-013
 0.910942E-013
 0.910942E-013
 0.910942E-013
 0.910942E-013
 0.910942E-013
 0.910942E-013
 0.910942E-013
 0.910942E-013
 0.910942E-013
 0.910942E-013
 0.910942E-013
 0.910942E-013
 0.910942E-013
 0.910941E-013
 0.910941E-013
 0.910941E-013
 0.910941E-013
 0.910941E-013
 0.910941E-013
 0.910941E-013
 0.910940E-013
 0.910940E-013
 0.910940E-013
 0.910940E-013
 0.910940E-013
 0.910940E-013
 0.910940E-013
 0.910939E-013
 0.910939E-013
 0.910939E-013
 0.910939E-013
 0.910939E-013
 0.910939E-013
 0.910939E-013
 0.910939E-013
 0.910939E-013
 0.910939E-013
 0.910939E-013
 0.910939E-013
 0.910939E-013
 0.910939E-013
 0.910939E-013
 0.910938E-013
 0.910938E-013
 0.910938E-013
 0.910938E-013
 0.910938E-013
 0.910938E-013
 0.910938E-013
 0.910938E-013
 0.910938E-013
 0.910938E-013
 0.910938E-013
 0.910938E-013
 0.910938E-013
 0.910938E-013
 0.910938E-013
 0.910940E-013
 0.910928E-013
 0.911003E-013
 0.910611E-013
 0.912289E-013
 0.906617E-013
 0.920916E-013
 0.921904E-013
 0.906176E-013
 0.912429E-013
 0.910576E-013
 0.911010E-013
 0.910926E-013
 0.910940E-013
 0.910938E-013
 0.910938E-013
 0.910938E-013
 0.910938E-013
 0.910938E-013
 0.910938E-013
 0.910938E-013
 0.910938E-013
 0.910938E-013
 0.910938E-013
 0.910938E-013
 0.910938E-013
 0.910938E-013
 0.910938E-013
 0.910938E-013
 0.910938E-013
 0.910938E-013
 0.910939E-013
 0.910939E-013
 0.910939E-013
 0.910939E-013
 0.910939E-013
 0.910939E-013
 0.910939E-013
 0.910939E-013
 0.910939E-013
 0.910939E-013
 0.910939E-013
 0.910939E-013
 0.910940E-013
 0.910940E-013
 0.910940E-013
 0.910940E-013
 0.910940E-013
 0.910940E-013
 0.910940E-013
 0.910941E-013
 0.910941E-013
 0.910941E-013
 0.910941E-013
 0.910941E-013
 0.910941E-013
 0.910942E-013
 0.910942E-013
 0.910942E-013
 0.910942E-013
 0.910942E-013
 0.910942E-013
 0.910943E-013
 0.910943E-013
 0.910943E-013
 0.910943E-013
 0.910943E-013
 0.910943E-013
 0.910943E-013
 0.910943E-013
 0.910943E-013
 0.910943E-013
 0.910943E-013
 0.910943E-013
 0.910943E-013
 0.910943E-013
 0.910943E-013
 0.910943E-013
 0.910943E-013
 0.910943E-013
 0.910942E-013
 0.910942E-013
 0.910942E-013
 0.910942E-013
 0.910942E-013
 0.910942E-013
 0.910942E-013
 0.910941E-013
 0.910941E-013
 0.910941E-013
 0.910941E-013
 0.910941E-013
 0.910941E-013
 0.910940E-013
 0.910940E-013
 0.910940E-013
 0.910940E-013
 0.910940E-013
 0.910940E-013
 0.910939E-013
 0.910939E-013
 0.910939E-013
 0.910939E-013
 0.910939E-013
 0.910939E-013
 0.910939E-013
 0.910939E-013
 0.910939E-013
 0.910939E-013
 0.910939E-013
 0.910939E-013
 0.910939E-013
 0.910938E-013
 0.910938E-013
 0.910938E-013
 0.910938E-013
 0.910938E-013
 0.910938E-013
 0.910938E-013
 0.910938E-013
 0.910938E-013
 0.910938E-013
 0.910938E-013
 0.910938E-013
 0.910938E-013
 0.910938E-013
 0.910938E-013
 0.910938E-013
 0.910940E-013
 0.910926E-013
 0.911010E-013
 0.910576E-013
 0.912429E-013
 0.906177E-013
 0.921903E-013
 0.922888E-013
 0.905737E-013
 0.912569E-013
 0.910542E-013
 0.911017E-013
 0.910925E-013
 0.910940E-013
 0.910938E-013
 0.910938E-013
 0.910938E-013
 0.910938E-013
 0.910938E-013
 0.910938E-013
 0.910938E-013
 0.910938E-013
 0.910938E-013
 0.910938E-013
 0.910938E-013
 0.910938E-013
 0.910938E-013
 0.910938E-013
 0.910938E-013
 0.910938E-013
 0.910939E-013
 0.910939E-013
 0.910939E-013
 0.910939E-013
 0.910939E-013
 0.910939E-013
 0.910939E-013
 0.910939E-013
 0.910939E-013
 0.910939E-013
 0.910939E-013
 0.910940E-013
 0.910940E-013
 0.910940E-013
 0.910940E-013
 0.910940E-013
 0.910940E-013
 0.910941E-013
 0.910941E-013
 0.910941E-013
 0.910941E-013
 0.910941E-013
 0.910942E-013
 0.910942E-013
 0.910942E-013
 0.910942E-013