# vtk DataFile Version 3.0
Solution data
ASCII
DATASET STRUCTURED_GRID
DIMENSIONS 128 128 1
POINTS 16384  double
      0.000004      0.000004      0.000000
      0.000012      0.000004      0.000000
      0.000020      0.000004      0.000000
      0.000027      0.000004      0.000000
      0.000035      0.000004      0.000000
      0.000043      0.000004      0.000000
      0.000051      0.000004      0.000000
      0.000059      0.000004      0.000000
      0.000066      0.000004      0.000000
      0.000074      0.000004      0.000000
      0.000082      0.000004      0.000000
      0.000090      0.000004      0.000000
      0.000098      0.000004      0.000000
      0.000105      0.000004      0.000000
      0.000113      0.000004      0.000000
      0.000121      0.000004      0.000000
      0.000129      0.000004      0.000000
      0.000137      0.000004      0.000000
      0.000145      0.000004      0.000000
      0.000152      0.000004      0.000000
      0.000160      0.000004      0.000000
      0.000168      0.000004      0.000000
      0.000176      0.000004      0.000000
      0.000184      0.000004      0.000000
      0.000191      0.000004      0.000000
      0.000199      0.000004      0.000000
      0.000207      0.000004      0.000000
      0.000215      0.000004      0.000000
      0.000223      0.000004      0.000000
      0.000230      0.000004      0.000000
      0.000238      0.000004      0.000000
      0.000246      0.000004      0.000000
      0.000254      0.000004      0.000000
      0.000262      0.000004      0.000000
      0.000270      0.000004      0.000000
      0.000277      0.000004      0.000000
      0.000285      0.000004      0.000000
      0.000293      0.000004      0.000000
      0.000301      0.000004      0.000000
      0.000309      0.000004      0.000000
      0.000316      0.000004      0.000000
      0.000324      0.000004      0.000000
      0.000332      0.000004      0.000000
      0.000340      0.000004      0.000000
      0.000348      0.000004      0.000000
      0.000355      0.000004      0.000000
      0.000363      0.000004      0.000000
      0.000371      0.000004      0.000000
      0.000379      0.000004      0.000000
      0.000387      0.000004      0.000000
      0.000395      0.000004      0.000000
      0.000402      0.000004      0.000000
      0.000410      0.000004      0.000000
      0.000418      0.000004      0.000000
      0.000426      0.000004      0.000000
      0.000434      0.000004      0.000000
      0.000441      0.000004      0.000000
      0.000449      0.000004      0.000000
      0.000457      0.000004      0.000000
      0.000465      0.000004      0.000000
      0.000473      0.000004      0.000000
      0.000480      0.000004      0.000000
      0.000488      0.000004      0.000000
      0.000496      0.000004      0.000000
      0.000504      0.000004      0.000000
      0.000512      0.000004      0.000000
      0.000520      0.000004      0.000000
      0.000527      0.000004      0.000000
      0.000535      0.000004      0.000000
      0.000543      0.000004      0.000000
      0.000551      0.000004      0.000000
      0.000559      0.000004      0.000000
      0.000566      0.000004      0.000000
      0.000574      0.000004      0.000000
      0.000582      0.000004      0.000000
      0.000590      0.000004      0.000000
      0.000598      0.000004      0.000000
      0.000605      0.000004      0.000000
      0.000613      0.000004      0.000000
      0.000621      0.000004      0.000000
      0.000629      0.000004      0.000000
      0.000637      0.000004      0.000000
      0.000645      0.000004      0.000000
      0.000652      0.000004      0.000000
      0.000660      0.000004      0.000000
      0.000668      0.000004      0.000000
      0.000676      0.000004      0.000000
      0.000684      0.000004      0.000000
      0.000691      0.000004      0.000000
      0.000699      0.000004      0.000000
      0.000707      0.000004      0.000000
      0.000715      0.000004      0.000000
      0.000723      0.000004      0.000000
      0.000730      0.000004      0.000000
      0.000738      0.000004      0.000000
      0.000746      0.000004      0.000000
      0.000754      0.000004      0.000000
      0.000762      0.000004      0.000000
      0.000770      0.000004      0.000000
      0.000777      0.000004      0.000000
      0.000785      0.000004      0.000000
      0.000793      0.000004      0.000000
      0.000801      0.000004      0.000000
      0.000809      0.000004      0.000000
      0.000816      0.000004      0.000000
      0.000824      0.000004      0.000000
      0.000832      0.000004      0.000000
      0.000840      0.000004      0.000000
      0.000848      0.000004      0.000000
      0.000855      0.000004      0.000000
      0.000863      0.000004      0.000000
      0.000871      0.000004      0.000000
      0.000879      0.000004      0.000000
      0.000887      0.000004      0.000000
      0.000895      0.000004      0.000000
      0.000902      0.000004      0.000000
      0.000910      0.000004      0.000000
      0.000918      0.000004      0.000000
      0.000926      0.000004      0.000000
      0.000934      0.000004      0.000000
      0.000941      0.000004      0.000000
      0.000949      0.000004      0.000000
      0.000957      0.000004      0.000000
      0.000965      0.000004      0.000000
      0.000973      0.000004      0.000000
      0.000980      0.000004      0.000000
      0.000988      0.000004      0.000000
      0.000996      0.000004      0.000000
      0.000004      0.000012      0.000000
      0.000012      0.000012      0.000000
      0.000020      0.000012      0.000000
      0.000027      0.000012      0.000000
      0.000035      0.000012      0.000000
      0.000043      0.000012      0.000000
      0.000051      0.000012      0.000000
      0.000059      0.000012      0.000000
      0.000066      0.000012      0.000000
      0.000074      0.000012      0.000000
      0.000082      0.000012      0.000000
      0.000090      0.000012      0.000000
      0.000098      0.000012      0.000000
      0.000105      0.000012      0.000000
      0.000113      0.000012      0.000000
      0.000121      0.000012      0.000000
      0.000129      0.000012      0.000000
      0.000137      0.000012      0.000000
      0.000145      0.000012      0.000000
      0.000152      0.000012      0.000000
      0.000160      0.000012      0.000000
      0.000168      0.000012      0.000000
      0.000176      0.000012      0.000000
      0.000184      0.000012      0.000000
      0.000191      0.000012      0.000000
      0.000199      0.000012      0.000000
      0.000207      0.000012      0.000000
      0.000215      0.000012      0.000000
      0.000223      0.000012      0.000000
      0.000230      0.000012      0.000000
      0.000238      0.000012      0.000000
      0.000246      0.000012      0.000000
      0.000254      0.000012      0.000000
      0.000262      0.000012      0.000000
      0.000270      0.000012      0.000000
      0.000277      0.000012      0.000000
      0.000285      0.000012      0.000000
      0.000293      0.000012      0.000000
      0.000301      0.000012      0.000000
      0.000309      0.000012      0.000000
      0.000316      0.000012      0.000000
      0.000324      0.000012      0.000000
      0.000332      0.000012      0.000000
      0.000340      0.000012      0.000000
      0.000348      0.000012      0.000000
      0.000355      0.000012      0.000000
      0.000363      0.000012      0.000000
      0.000371      0.000012      0.000000
      0.000379      0.000012      0.000000
      0.000387      0.000012      0.000000
      0.000395      0.000012      0.000000
      0.000402      0.000012      0.000000
      0.000410      0.000012      0.000000
      0.000418      0.000012      0.000000
      0.000426      0.000012      0.000000
      0.000434      0.000012      0.000000
      0.000441      0.000012      0.000000
      0.000449      0.000012      0.000000
      0.000457      0.000012      0.000000
      0.000465      0.000012      0.000000
      0.000473      0.000012      0.000000
      0.000480      0.000012      0.000000
      0.000488      0.000012      0.000000
      0.000496      0.000012      0.000000
      0.000504      0.000012      0.000000
      0.000512      0.000012      0.000000
      0.000520      0.000012      0.000000
      0.000527      0.000012      0.000000
      0.000535      0.000012      0.000000
      0.000543      0.000012      0.000000
      0.000551      0.000012      0.000000
      0.000559      0.000012      0.000000
      0.000566      0.000012      0.000000
      0.000574      0.000012      0.000000
      0.000582      0.000012      0.000000
      0.000590      0.000012      0.000000
      0.000598      0.000012      0.000000
      0.000605      0.000012      0.000000
      0.000613      0.000012      0.000000
      0.000621      0.000012      0.000000
      0.000629      0.000012      0.000000
      0.000637      0.000012      0.000000
      0.000645      0.000012      0.000000
      0.000652      0.000012      0.000000
      0.000660      0.000012      0.000000
      0.000668      0.000012      0.000000
      0.000676      0.000012      0.000000
      0.000684      0.000012      0.000000
      0.000691      0.000012      0.000000
      0.000699      0.000012      0.000000
      0.000707      0.000012      0.000000
      0.000715      0.000012      0.000000
      0.000723      0.000012      0.000000
      0.000730      0.000012      0.000000
      0.000738      0.000012      0.000000
      0.000746      0.000012      0.000000
      0.000754      0.000012      0.000000
      0.000762      0.000012      0.000000
      0.000770      0.000012      0.000000
      0.000777      0.000012      0.000000
      0.000785      0.000012      0.000000
[...]
POINT_DATA 16384
SCALARS rhoe double
LOOKUP_TABLE default
 0.916721E-013
 0.912089E-013
 0.915534E-013
 0.915214E-013
 0.916416E-013
 0.917076E-013
 0.917904E-013
 0.918681E-013
 0.919469E-013
 0.920251E-013
 0.921032E-013
 0.921809E-013
 0.922584E-013
 0.923357E-013
 0.924126E-013
 0.924891E-013
 0.925654E-013
 0.926412E-013
 0.927167E-013
 0.927917E-013
 0.928662E-013
 0.929403E-013
 0.930139E-013
 0.930869E-013
 0.931593E-013
 0.932310E-013
 0.933021E-013
 0.933724E-013
 0.934420E-013
 0.935107E-013
 0.935785E-013
 0.936454E-013
 0.937113E-013
 0.937762E-013
 0.938399E-013
 0.939024E-013
 0.939636E-013
 0.940236E-013
 0.940821E-013
 0.941391E-013
 0.941947E-013
 0.942486E-013
 0.943008E-013
 0.943513E-013
 0.943999E-013
 0.944466E-013
 0.944914E-013
 0.945341E-013
 0.945747E-013
 0.946131E-013
 0.946493E-013
 0.946832E-013
 0.947147E-013
 0.947438E-013
 0.947705E-013
 0.947946E-013
 0.948161E-013
 0.948351E-013
 0.948514E-013
 0.948650E-013
 0.948760E-013
 0.948842E-013
 0.948897E-013
 0.948924E-013
 0.948924E-013
 0.948897E-013
 0.948842E-013
 0.948760E-013
 0.948650E-013
 0.948514E-013
 0.948351E-013
 0.948161E-013
 0.947946E-013
 0.947705E-013
 0.947439E-013
 0.947148E-013
 0.946832E-013
 0.946493E-013
 0.946132E-013
 0.945747E-013
 0.945341E-013
 0.944914E-013
 0.944467E-013
 0.943999E-013
 0.943513E-013
 0.943008E-013
 0.942486E-013
 0.941947E-013
 0.941392E-013
 0.940821E-013
 0.940236E-013
 0.939637E-013
 0.939024E-013
 0.938399E-013
 0.937762E-013
 0.937114E-013
 0.936455E-013
 0.935786E-013
 0.935107E-013
 0.934420E-013
 0.933725E-013
 0.933021E-013
 0.932310E-013
 0.931593E-013
 0.930869E-013
 0.930139E-013
 0.929404E-013
 0.928663E-013
 0.927917E-013
 0.927167E-013
 0.926412E-013
 0.925654E-013
 0.924892E-013
 0.924126E-013
 0.923357E-013
 0.922585E-013
 0.921810E-013
 0.921032E-013
 0.920251E-013
 0.919469E-013
 0.918682E-013
 0.917904E-013
 0.917077E-013
 0.916416E-013
 0.915214E-013
 0.915534E-013
 0.912089E-013
 0.916720E-013
 0.912089E-013
 0.907565E-013
 0.909420E-013
 0.907705E-013
 0.907639E-013
 0.906932E-013
 0.906442E-013
 0.905890E-013
 0.905356E-013
 0.904819E-013
 0.904286E-013
 0.903754E-013
 0.903224E-013
 0.902696E-013
 0.902170E-013
 0.901646E-013
 0.901125E-013
 0.900606E-013
 0.900090E-013
 0.899576E-013
 0.899066E-013
 0.898560E-013
 0.898056E-013
 0.897557E-013
 0.897062E-013
 0.896571E-013
 0.896084E-013
 0.895603E-013
 0.895127E-013
 0.894656E-013
 0.894192E-013
 0.893733E-013
 0.893282E-013
 0.892838E-013
 0.892402E-013
 0.891973E-013
 0.891554E-013
 0.891143E-013
 0.890742E-013
 0.890351E-013
 0.889970E-013
 0.889601E-013
 0.889242E-013
 0.888896E-013
 0.888563E-013
 0.888242E-013
 0.887935E-013
 0.887642E-013
 0.887364E-013
 0.887100E-013
 0.886852E-013
 0.886619E-013
 0.886403E-013
 0.886203E-013
 0.886020E-013
 0.885855E-013
 0.885707E-013
 0.885577E-013
 0.885465E-013
 0.885371E-013
 0.885296E-013
 0.885239E-013
 0.885202E-013
 0.885183E-013
 0.885183E-013
 0.885202E-013
 0.885239E-013
 0.885296E-013
 0.885371E-013
 0.885465E-013
 0.885577E-013
 0.885707E-013
 0.885855E-013
 0.886020E-013
 0.886203E-013
 0.886403E-013
 0.886619E-013
 0.886852E-013
 0.887100E-013
 0.887364E-013
 0.887642E-013
 0.887935E-013
 0.888242E-013
 0.888563E-013
 0.888897E-013
 0.889243E-013
 0.889601E-013
 0.889970E-013
 0.890351E-013
 0.890742E-013
 0.891143E-013
 0.891554E-013
 0.891974E-013
 0.892402E-013
 0.892838E-013
 0.893282E-013
 0.893734E-013
 0.894192E-013
 0.894656E-013
 0.895127E-013
 0.895603E-013
 0.896084E-013
 0.896571E-013
 0.897062E-013
 0.897557E-013
 0.898056E-013
 0.898560E-013
 0.899066E-013
 0.899576E-013
 0.900090E-013
 0.900606E-013
 0.901125E-013
 0.901646E-013
 0.902170E-013
 0.902696E-013
 0.903224E-013
 0.903754E-013
 0.904286E-013
 0.904819E-013
 0.905356E-013
 0.905890E-013
 0.906442E-013
 0.906932E-013
 0.907639E-013
 0.907705E-013
 0.909420E-013
 0.907565E-013
 0.912089E-013
 0.915534E-013
 0.909420E-013
 0.913325E-013
 0.911911E-013
 0.912891E-013
 0.912946E-013
 0.913311E-013
 0.913583E-013
 0.913878E-013
 0.914167E-013
 0.914456E-013
 0.914743E-013
 0.915030E-013
 0.915315E-013
 0.915599E-013
 0.915882E-013
 0.916164E-013
 0.916444E-013
 0.916723E-013
 0.917001E-013
 0.917276E-013
 0.917550E-013
 0.917822E-013
 0.918092E-013
 0.918360E-013
 0.918625E-013
 0.918888E-013
 0.919148E-013
 0.919406E-013
 0.919660E-013
 0.919911E-013
 0.920159E-013
 0.920403E-013
 0.920643E-013
 0.920879E-013
 0.921110E-013
 0.921337E-013
 0.921559E-013
 0.921776E-013
 0.921988E-013
 0.922194E-013
 0.922394E-013
 0.922587E-013
 0.922774E-013
 0.922955E-013
 0.923128E-013
 0.923294E-013
 0.923453E-013
 0.923604E-013
 0.923746E-013
 0.923881E-013
 0.924007E-013
 0.924124E-013
 0.924232E-013
 0.924331E-013
 0.924420E-013
 0.924500E-013
 0.924571E-013
 0.924631E-013
 0.924682E-013
 0.924723E-013
 0.924753E-013
 0.924774E-013
 0.924784E-013
 0.924784E-013
 0.924774E-013
 0.924753E-013
 0.924723E-013
 0.924682E-013
 0.924631E-013
 0.924571E-013
 0.924500E-013
 0.924420E-013
 0.924331E-013
 0.924232E-013
 0.924124E-013
 0.924007E-013
 0.923881E-013
 0.923746E-013
 0.923604E-013
 0.923453E-013
 0.923294E-013
 0.923128E-013
 0.922955E-013
 0.922774E-013
 0.922587E-013
 0.922393E-013
 0.922193E-013
 0.921988E-013
 0.921776E-013
 0.921559E-013
 0.921337E-013
 0.921110E-013
 0.920878E-013
 0.920642E-013
 0.920402E-013
 0.920158E-013
 0.919911E-013
 0.919660E-013
 0.919405E-013
 0.919148E-013
 0.918888E-013
 0.918625E-013
 0.918359E-013
 0.918092E-013
 0.917822E-013
 0.917550E-013
 0.917276E-013
 0.917000E-013
 0.916723E-013
 0.916444E-013
 0.916164E-013
 0.915882E-013
 0.915599E-013
 0.915315E-013
 0.915030E-013
 0.914743E-013
 0.914456E-013
 0.914167E-013
 0.913878E-013
 0.913583E-013
 0.913310E-013
 0.912946E-013
 0.912891E-013
 0.911911E-013
 0.913325E-013
 0.909420E-013
 0.915534E-013
 0.915214E-013
 0.907705E-013
 0.911911E-013
 0.909679E-013
 0.910406E-013
 0.909977E-013
 0.909939E-013
 0.909785E-013
 0.909663E-013
 0.909533E-013
 0.909406E-013
 0.909278E-013
 0.909152E-013
 0.909025E-013
 0.908899E-013
 0.908774E-013
 0.908650E-013
 0.908526E-013
 0.908402E-013
 0.908279E-013
 0.908158E-013
 0.908036E-013
 0.907916E-013
 0.907797E-013
 0.907678E-013
 0.907561E-013
 0.907444E-013
 0.907329E-013
 0.907215E-013
 0.907103E-013
 0.906992E-013
 0.906882E-013
 0.906774E-013
 0.906668E-013
 0.906563E-013
 0.906461E-013
 0.906360E-013
 0.906262E-013
 0.906166E-013
 0.906072E-013
 0.905981E-013
 0.905893E-013
 0.905807E-013
 0.905724E-013
 0.905644E-013
 0.905567E-013
 0.905494E-013
 0.905423E-013
 0.905357E-013
 0.905293E-013
 0.905234E-013
 0.905178E-013
 0.905126E-013
 0.905078E-013
 0.905035E-013
 0.904995E-013
 0.904960E-013
 0.904928E-013
 0.904901E-013
 0.904879E-013
 0.904861E-013
 0.904848E-013
 0.904838E-013
 0.904834E-013
 0.904834E-013
 0.904838E-013
 0.904848E-013
 0.904861E-013
 0.904879E-013
 0.904902E-013
 0.904928E-013
 0.904960E-013
 0.904995E-013
 0.905035E-013
 0.905079E-013
 0.905126E-013
 0.905178E-013
 0.905234E-013
 0.905294E-013
 0.905357E-013
 0.905424E-013
 0.905494E-013
 0.905567E-013
 0.905644E-013
 0.905724E-013
 0.905807E-013
 0.905893E-013
 0.905981E-013
 0.906072E-013
 0.906166E-013
 0.906262E-013
 0.906360E-013
 0.906461E-013
 0.906563E-013
 0.906668E-013
 0.906774E-013
 0.906882E-013
 0.906992E-013
 0.907103E-013
 0.907215E-013
 0.907329E-013
 0.907444E-013
 0.907561E-013
 0.907678E-013
 0.907797E-013
 0.907916E-013
 0.908037E-013
 0.908158E-013
 0.908280E-013
 0.908402E-013
 0.908526E-013
 0.908650E-013
 0.908774E-013
 0.908900E-013
 0.909025E-013
 0.909152E-013
 0.909279E-013
 0.909406E-013
 0.909533E-013
 0.909663E-013
 0.909785E-013
 0.909939E-013
 0.909977E-013
 0.910406E-013
 0.909679E-013
 0.911911E-013
 0.907705E-013
 0.915214E-013
 0.916416E-013
 0.907639E-013
 0.912891E-013
 0.910406E-013
 0.911492E-013
 0.911176E-013
 0.911336E-013
 0.911354E-013
 0.911409E-013
 0.911455E-013
 0.911503E-013
 0.911550E-013
 0.911597E-013
 0.911644E-013
 0.911691E-013
 0.911738E-013
 0.911784E-013
 0.911831E-013
 0.911876E-013
 0.911922E-013
 0.911968E-013
 0.912013E-013
 0.912057E-013
 0.912102E-013
 0.912146E-013
 0.912190E-013
 0.912233E-013
 0.912276E-013
 0.912318E-013
 0.912360E-013
 0.912401E-013
 0.912442E-013
 0.912482E-013
 0.912522E-013
 0.912561E-013
 0.912599E-013
 0.912636E-013
 0.912673E-013
 0.912709E-013
 0.912744E-013
 0.912778E-013
 0.912811E-013
 0.912842E-013
 0.912873E-013
 0.912903E-013
 0.912932E-013
 0.912959E-013
 0.912985E-013
 0.913010E-013
 0.913034E-013
 0.913056E-013
 0.913077E-013
 0.913096E-013
 0.913114E-013
 0.913130E-013
 0.913145E-013
 0.913158E-013
 0.913170E-013
 0.913180E-013
 0.913188E-013
 0.913195E-013
 0.913200E-013
 0.913203E-013
 0.913205E-013
 0.913205E-013
 0.913203E-013
 0.913200E-013
 0.913195E-013
 0.913188E-013
 0.913180E-013
 0.913170E-013
 0.913158E-013
 0.913145E-013
 0.913130E-013
 0.913114E-013
 0.913096E-013
 0.913077E-013
 0.913056E-013
 0.913034E-013
 0.913010E-013
 0.912985E-013
 0.912959E-013
 0.912932E-013
 0.912903E-013
 0.912873E-013
 0.912842E-013
 0.912810E-013
 0.912778E-013
 0.912744E-013
 0.912709E-013
 0.912673E-013
 0.912636E-013
 0.912599E-013
 0.912561E-013
 0.912522E-013
 0.912482E-013
 0.912442E-013
 0.912401E-013
 0.912360E-013
 0.912318E-013
 0.912276E-013
 0.912233E-013
 0.912190E-013
 0.912146E-013
 0.912102E-013
 0.912057E-013
 0.912013E-013
 0.911967E-013
 0.911922E-013
 0.911876E-013
 0.911830E-013
 0.911784E-013
 0.911738E-013
 0.911691E-013
 0.911644E-013
 0.911597E-013
 0.911550E-013
 0.911503E-013
 0.911455E-013
 0.911409E-013
 0.911354E-013
 0.911336E-013
 0.911176E-013
 0.911492E-013
 0.910406E-013
 0.912891E-013
 0.907639E-013
 0.916416E-013
 0.917076E-013
 0.906932E-013
 0.912946E-013
 0.909977E-013
 0.911176E-013
 0.910733E-013
 0.910849E-013
 0.910798E-013
 0.910791E-013
 0.910774E-013
 0.910759E-013
 0.910744E-013
 0.910729E-013
 0.910714E-013
 0.910699E-013
 0.910684E-013
 0.910669E-013
 0.910654E-013
 0.910640E-013
 0.910625E-013
 0.910610E-013
 0.910596E-013
 0.910582E-013
 0.910567E-013
 0.910553E-013
 0.910539E-013
 0.910526E-013
 0.910512E-013
 0.910498E-013
 0.910485E-013
 0.910472E-013
 0.910459E-013
 0.910446E-013
 0.910433E-013
 0.910421E-013
 0.910408E-013
 0.910396E-013
 0.910385E-013
 0.910373E-013
 0.910362E-013
 0.910351E-013
 0.910341E-013
 0.910331E-013
 0.910321E-013
 0.910311E-013
 0.910302E-013
 0.910293E-013
 0.910285E-013
 0.910277E-013
 0.910270E-013
 0.910263E-013
 0.910256E-013
 0.910250E-013
 0.910244E-013
 0.910239E-013
 0.910234E-013
 0.910230E-013
 0.910226E-013
 0.910223E-013
 0.910220E-013
 0.910218E-013
 0.910217E-013
 0.910216E-013
 0.910215E-013
 0.910215E-013
 0.910216E-013
 0.910217E-013
 0.910218E-013
 0.910220E-013
 0.910223E-013
 0.910226E-013
 0.910230E-013
 0.910234E-013
 0.910239E-013
 0.910244E-013
 0.910250E-013
 0.910256E-013
 0.910263E-013
 0.910270E-013
 0.910277E-013
 0.910285E-013
 0.910293E-013
 0.910302E-013
 0.910311E-013
 0.910321E-013
 0.910331E-013
 0.910341E-013
 0.910351E-013
 0.910362E-013
 0.910373E-013
 0.910385E-013
 0.910396E-013
 0.910408E-013
 0.910421E-013
 0.910433E-013
 0.910446E-013
 0.910459E-013
 0.910472E-013
 0.910485E-013
 0.910498E-013
 0.910512E-013
 0.910526E-013
 0.910539E-013
 0.910553E-013
 0.910568E-013
 0.910582E-013
 0.910596E-013
 0.910611E-013
 0.910625E-013
 0.910640E-013
 0.910654E-013
 0.910669E-013
 0.910684E-013
 0.910699E-013
 0.910714E-013
 0.910729E-013
 0.910744E-013
 0.910759E-013
 0.910774E-013
 0.910791E-013
 0.910798E-013
 0.910849E-013
 0.910733E-013
 0.911176E-013
 0.909977E-013
 0.912946E-013
 0.906932E-013
 0.917077E-013
 0.917904E-013
 0.906442E-013
 0.913311E-013
 0.909939E-013
 0.911336E-013
 0.910849E-013
 0.911004E-013
 0.910967E-013
 0.910981E-013
 0.910984E-013
 0.910988E-013
 0.910992E-013
 0.910997E-013
 0.911001E-013
 0.911005E-013
 0.911009E-013
 0.911013E-013
 0.911018E-013
 0.911022E-013
 0.911026E-013
 0.911030E-013
 0.911034E-013
 0.911038E-013
 0.911042E-013
 0.911046E-013
 0.911050E-013
 0.911054E-013
 0.911058E-013
 0.911061E-013
 0.911065E-013
 0.911069E-013
 0.911073E-013
 0.911076E-013
 0.911080E-013
 0.911083E-013
 0.911087E-013
 0.911090E-013
 0.911094E-013
 0.911097E-013
 0.911100E-013
 0.911103E-013
 0.911106E-013
 0.911109E-013
 0.911112E-013
 0.911114E-013
 0.911117E-013
 0.911120E-013
 0.911122E-013
 0.911124E-013
 0.911126E-013
 0.911128E-013
 0.911130E-013
 0.911132E-013
 0.911134E-013
 0.911135E-013
 0.911137E-013
 0.911138E-013
 0.911139E-013
 0.911140E-013
 0.911140E-013
 0.911141E-013
 0.911142E-013
 0.911142E-013
 0.911142E-013
 0.911142E-013
 0.911142E-013
 0.911142E-013
 0.911141E-013
 0.911140E-013
 0.911140E-013
 0.911139E-013
 0.911138E-013
 0.911137E-013
 0.911135E-013
 0.911134E-013
 0.911132E-013
 0.911130E-013
 0.911128E-013
 0.911126E-013
 0.911124E-013
 0.911122E-013
 0.911120E-013
 0.911117E-013
 0.911114E-013
 0.911112E-013
 0.911109E-013
 0.911106E-013
 0.911103E-013
 0.911100E-013
 0.911097E-013
 0.911094E-013
 0.911090E-013
 0.911087E-013
 0.911083E-013
 0.911080E-013
 0.911076E-013
 0.911073E-013
 0.911069E-013
 0.911065E-013
 0.911061E-013
 0.911058E-013
 0.911054E-013
 0.911050E-013
 0.911046E-013
 0.911042E-013
 0.911038E-013
 0.911034E-013
 0.911030E-013
 0.911026E-013
 0.911022E-013
 0.911018E-013
 0.911013E-013
 0.911009E-013
 0.911005E-013
 0.911001E-013
 0.910997E-013
 0.910992E-013
 0.910988E-013
 0.910984E-013
 0.910981E-013
 0.910967E-013
 0.911004E-013
 0.910849E-013
 0.911336E-013
 0.909939E-013
 0.913310E-013
 0.906442E-013
 0.917904E-013
 0.918681E-013
 0.905890E-013
 0.913583E-013
 0.909785E-013
 0.911354E-013
 0.910798E-013
 0.910967E-013
 0.910920E-013
 0.910930E-013
 0.910927E-013
 0.910926E-013
 0.910925E-013
 0.910924E-013
 0.910923E-013
 0.910922E-013
 0.910921E-013
 0.910920E-013
 0.910919E-013
 0.910918E-013
 0.910917E-013
 0.910916E-013
 0.910915E-013
 0.910914E-013
 0.910913E-013
 0.910912E-013
 0.910911E-013
 0.910910E-013
 0.910909E-013
 0.910908E-013
 0.910907E-013
 0.910906E-013
 0.910905E-013
 0.910904E-013
 0.910904E-013
 0.910903E-013
 0.910902E-013
 0.910901E-013
 0.910900E-013
 0.910900E-013
 0.910899E-013
 0.910898E-013
 0.910898E-013
 0.910897E-013
 0.910896E-013
 0.910896E-013
 0.910895E-013
 0.910894E-013
 0.910894E-013
 0.910893E-013
 0.910893E-013
 0.910892E-013
 0.910892E-013
 0.910892E-013
 0.910891E-013
 0.910891E-013
 0.910891E-013
 0.910890E-013
 0.910890E-013
 0.910890E-013
 0.910890E-013
 0.910890E-013
 0.910890E-013
 0.910890E-013
 0.910889E-013
 0.910889E-013
 0.910890E-013
 0.910890E-013
 0.910890E-013
 0.910890E-013
 0.910890E-013
 0.910890E-013
 0.910890E-013
 0.910891E-013
 0.910891E-013
 0.910891E-013
 0.910892E-013
 0.910892E-013
 0.910892E-013
 0.910893E-013
 0.910893E-013
 0.910894E-013
 0.910894E-013
 0.910895E-013
 0.910896E-013
 0.910896E-013
 0.910897E-013
 0.910898E-013
 0.910898E-013
 0.910899E-013
 0.910900E-013
 0.910900E-013
 0.910901E-013
 0.910902E-013
 0.910903E-013
 0.910904E-013
 0.910904E-013
 0.910905E-013
 0.910906E-013
 0.910907E-013
 0.910908E-013
 0.910909E-013
 0.910910E-013
 0.910911E-013
 0.910912E-013
 0.910913E-013
 0.910914E-013
 0.910915E-013
 0.910916E-013
 0.910917E-013
 0.910918E-013
 0.910919E-013
 0.910920E-013
 0.910921E-013
 0.910922E-013
 0.910923E-013
 0.910924E-013
 0.910925E-013
 0.910926E-013
 0.910927E-013
 0.910930E-013
 0.910920E-013
 0.910967E-013
 0.910798E-013
 0.911354E-013
 0.909785E-013
 0.913583E-013
 0.905890E-013
 0.918682E-013
 0.919469E-013
 0.905356E-013
 0.913878E-013
 0.909663E-013
 0.911409E-013
 0.910791E-013
 0.910981E-013
 0.910930E-013
 0.910943E-013
 0.910940E-013
 0.910941E-013
 0.910941E-013
 0.910942E-013
 0.910942E-013
 0.910942E-013
 0.910942E-013
 0.910943E-013
 0.910943E-013
 0.910943E-013
 0.910943E-013
 0.910943E-013
 0.910944E-013
 0.910944E-013
 0.910944E-013
 0.910944E-013
 0.910945E-013
 0.910945E-013
 0.910945E-013
 0.910945E-013
 0.910946E-013
 0.910946E-013
 0.910946E-013
 0.910946E-013
 0.910947E-013
 0.910947E-013
 0.910947E-013
 0.910947E-013
 0.910947E-013
 0.910948E-013
 0.910948E-013
 0.910948E-013
 0.910948E-013
 0.910949E-013
 0.910949E-013
 0.910949E-013
 0.910949E-013
 0.910949E-013
 0.910950E-013
 0.910950E-013
 0.910950E-013
 0.910950E-013
 0.910950E-013
 0.910950E-013
 0.910951E-013
 0.910951E-013
 0.910951E-013
 0.910951E-013
 0.910951E-013
 0.910951E-013
 0.910951E-013
 0.910951E-013
 0.910951E-013
 0.910951E-013
 0.910951E-013
 0.910951E-013
 0.910951E-013
 0.910951E-013
 0.910951E-013
 0.910951E-013
 0.910951E-013
 0.910951E-013
 0.910951E-013
 0.910951E-013
 0.910951E-013
 0.910951E-013
 0.910950E-013
 0.910950E-013
 0.910950E-013
 0.910950E-013
 0.910950E-013
 0.910950E-013
 0.910949E-013
 0.910949E-013
 0.910949E-013
 0.910949E-013
 0.910949E-013
 0.910948E-013
 0.910948E-013
 0.910948E-013
 0.910948E-013
 0.910947E-013
 0.910947E-013
 0.910947E-013
 0.910947E-013
 0.910947E-013
 0.910946E-013
 0.910946E-013
 0.910946E-013
 0.910946E-013
 0.910945E-013
 0.910945E-013
 0.910945E-013
 0.910945E-013
 0.910944E-013
 0.910944E-013
 0.910944E-013
 0.910944E-013
 0.910943E-013
 0.910943E-013
 0.910943E-013
 0.910943E-013
 0.910943E-013
 0.910942E-013
 0.910942E-013
 0.910942E-013
 0.910942E-013
 0.910941E-013
 0.910941E-013
 0.910940E-013
 0.910943E-013
 0.910930E-013
 0.910981E-013
 0.910791E-013
 0.911409E-013
 0.909663E-013
 0.913878E-013
 0.905356E-013
 0.919469E-013
 0.920251E-013
 0.904819E-013
 0.914167E-013
 0.909533E-013
 0.911455E-013
 0.910774E-013
 0.910984E-013
 0.910927E-013
 0.910940E-013
 0.910937E-013
 0.910938E-013
 0.910938E-013
 0.910938E-013
 0.910938E-013
 0.910938E-013
 0.910938E-013
 0.910938E-013
 0.910938E-013
 0.910937E-013
 0.910937E-013
 0.910937E-013
 0.910937E-013
 0.910937E-013
 0.910937E-013
 0.910937E-013
 0.910937E-013
 0.910937E-013
 0.910937E-013
 0.910937E-013
 0.910937E-013
 0.910937E-013
 0.910937E-013
 0.910937E-013
 0.910937E-013
 0.910937E-013
 0.910937E-013
 0.910937E-013
 0.910937E-013
 0.910937E-013
 0.910937E-013
 0.910937E-013
 0.910937E-013
 0.910937E-013
 0.910937E-013
 0.910937E-013
 0.910938E-013
 0.910938E-013
 0.910938E-013
 0.910938E-013
 0.910938E-013
 0.910938E-013
 0.910938E-013
 0.910938E-013
 0.910938E-013
 0.910938E-013
 0.910938E-013
 0.910938E-013
 0.910938E-013
 0.910938E-013
 0.910938E-013
 0.910938E-013
 0.910938E-013
 0.910938E-013
 0.910938E-013
 0.910938E-013
 0.910938E-013
 0.910938E-013
 0.910938E-013
 0.910938E-013
 0.910938E-013
 0.910938E-013
 0.910938E-013
 0.910938E-013
 0.910938E-013
 0.910938E-013
 0.910938E-013
 0.910938E-013
 0.910938E-013
 0.910938E-013
 0.910938E-013
 0.910938E-013
 0.910938E-013
 0.910938E-013
 0.910937E-013
 0.910937E-013
 0.910937E-013
 0.910937E-013
 0.910937E-013
 0.910937E-013
 0.910937E-013
 0.910937E-013
 0.910937E-013
 0.910937E-013
 0.910937E-013
 0.910937E-013
 0.910937E-013
 0.910937E-013
 0.910937E-013
 0.910937E-013
 0.910937E-013
 0.910937E-013
 0.910937E-013
 0.910937E-013
 0.910937E-013
 0.910937E-013
 0.910937E-013
 0.910937E-013
 0.910937E-013
 0.910937E-013
 0.910937E-013
 0.910938E-013
 0.910938E-013
 0.910938E-013
 0.910938E-013
 0.910938E-013
 0.910938E-013
 0.910938E-013
 0.910938E-013
 0.910937E-013
 0.910940E-013
 0.910927E-013
 0.910984E-013
 0.910774E-013
 0.911455E-013
 0.909533E-013
 0.914167E-013
 0.904819E-013
 0.920252E-013
 0.921032E-013
 0.904286E-013
 0.914456E-013
 0.909406E-013
 0.911503E-013
 0.910759E-013
 0.910988E-013
 0.910926E-013
 0.910941E-013
 0.910938E-013
 0.910939E-013
 0.910938E-013
 0.910938E-013
 0.910939E-013
 0.910939E-013
 0.910939E-013
 0.910939E-013
 0.910939E-013
 0.910939E-013
 0.910939E-013
 0.910939E-013
 0.910939E-013
 0.910939E-013
 0.910939E-013
 0.910939E-013
 0.910939E-013
 0.910939E-013
 0.910939E-013
 0.910939E-013
 0.910939E-013
 0.910939E-013
 0.910939E-013
 0.910939E-013
 0.910939E-013
 0.910939E-013
 0.910939E-013
 0.910939E-013
 0.910939E-013
 0.910940E-013
 0.910940E-013
 0.910940E-013
 0.910940E-013
 0.910940E-013
 0.910940E-013
 0.910940E-013
 0.910940E-013
 0.910940E-013
 0.910940E-013
 0.910940E-013