# vtk DataFile Version 3.0
Solution data
ASCII
DATASET STRUCTURED_GRID
DIMENSIONS 128 128 1
POINTS 16384  double
      0.000004      0.000004      0.000000
      0.000012      0.000004      0.000000
      0.000020      0.000004      0.000000
      0.000027      0.000004      0.000000
      0.000035      0.000004      0.000000
      0.000043      0.000004      0.000000
      0.000051      0.000004      0.000000
      0.000059      0.000004      0.000000
      0.000066      0.000004      0.000000
      0.000074      0.000004      0.000000
      0.000082      0.000004      0.000000
      0.000090      0.000004      0.000000
      0.000098      0.000004      0.000000
      0.000105      0.000004      0.000000
      0.000113      0.000004      0.000000
      0.000121      0.000004      0.000000
      0.000129      0.000004      0.000000
      0.000137      0.000004      0.000000
      0.000145      0.000004      0.000000
      0.000152      0.000004      0.000000
      0.000160      0.000004      0.000000
      0.000168      0.000004      0.000000
      0.000176      0.000004      0.000000
      0.000184      0.000004      0.000000
      0.000191      0.000004      0.000000
      0.000199      0.000004      0.000000
      0.000207      0.000004      0.000000
      0.000215      0.000004      0.000000
      0.000223      0.000004      0.000000
      0.000230      0.000004      0.000000
      0.000238      0.000004      0.000000
      0.000246      0.000004      0.000000
      0.000254      0.000004      0.000000
      0.000262      0.000004      0.000000
      0.000270      0.000004      0.000000
      0.000277      0.000004      0.000000
      0.000285      0.000004      0.000000
      0.000293      0.000004      0.000000
      0.000301      0.000004      0.000000
      0.000309      0.000004      0.000000
      0.000316      0.000004      0.000000
      0.000324      0.000004      0.000000
      0.000332      0.000004      0.000000
      0.000340      0.000004      0.000000
      0.000348      0.000004      0.000000
      0.000355      0.000004      0.000000
      0.000363      0.000004      0.000000
      0.000371      0.000004      0.000000
      0.000379      0.000004      0.000000
      0.000387      0.000004      0.000000
      0.000395      0.000004      0.000000
      0.000402      0.000004      0.000000
      0.000410      0.000004      0.000000
      0.000418      0.000004      0.000000
      0.000426      0.000004      0.000000
      0.000434      0.000004      0.000000
      0.000441      0.000004      0.000000
      0.000449      0.000004      0.000000
      0.000457      0.000004      0.000000
      0.000465      0.000004      0.000000
      0.000473      0.000004      0.000000
      0.000480      0.000004      0.000000
      0.000488      0.000004      0.000000
      0.000496      0.000004      0.000000
      0.000504      0.000004      0.000000
      0.000512      0.000004      0.000000
      0.000520      0.000004      0.000000
      0.000527      0.000004      0.000000
      0.000535      0.000004      0.000000
      0.000543      0.000004      0.000000
      0.000551      0.000004      0.000000
      0.000559      0.000004      0.000000
      0.000566      0.000004      0.000000
      0.000574      0.000004      0.000000
      0.000582      0.000004      0.000000
      0.000590      0.000004      0.000000
      0.000598      0.000004      0.000000
      0.000605      0.000004      0.000000
      0.000613      0.000004      0.000000
      0.000621      0.000004      0.000000
      0.000629      0.000004      0.000000
      0.000637      0.000004      0.000000
      0.000645      0.000004      0.000000
      0.000652      0.000004      0.000000
      0.000660      0.000004      0.000000
      0.000668      0.000004      0.000000
      0.000676      0.000004      0.000000
      0.000684      0.000004      0.000000
      0.000691      0.000004      0.000000
      0.000699      0.000004      0.000000
      0.000707      0.000004      0.000000
      0.000715      0.000004      0.000000
      0.000723      0.000004      0.000000
      0.000730      0.000004      0.000000
      0.000738      0.000004      0.000000
      0.000746      0.000004      0.000000
      0.000754      0.000004      0.000000
      0.000762      0.000004      0.000000
      0.000770      0.000004      0.000000
      0.000777      0.000004      0.000000
      0.000785      0.000004      0.000000
      0.000793      0.000004      0.000000
      0.000801      0.000004      0.000000
      0.000809      0.000004      0.000000
      0.000816      0.000004      0.000000
      0.000824      0.000004      0.000000
      0.000832      0.000004      0.000000
      0.000840      0.000004      0.000000
      0.000848      0.000004      0.000000
      0.000855      0.000004      0.000000
      0.000863      0.000004      0.000000
      0.000871      0.000004      0.000000
      0.000879      0.000004      0.000000
      0.000887      0.000004      0.000000
      0.000895      0.000004      0.000000
      0.000902      0.000004      0.000000
      0.000910      0.000004      0.000000
      0.000918      0.000004      0.000000
      0.000926      0.000004      0.000000
      0.000934      0.000004      0.000000
      0.000941      0.000004      0.000000
      0.000949      0.000004      0.000000
      0.000957      0.000004      0.000000
      0.000965      0.000004      0.000000
      0.000973      0.000004      0.000000
      0.000980      0.000004      0.000000
      0.000988      0.000004      0.000000
      0.000996      0.000004      0.000000
      0.000004      0.000012      0.000000
      0.000012      0.000012      0.000000
      0.000020      0.000012      0.000000
      0.000027      0.000012      0.000000
      0.000035      0.000012      0.000000
      0.000043      0.000012      0.000000
      0.000051      0.000012      0.000000
      0.000059      0.000012      0.000000
      0.000066      0.000012      0.000000
      0.000074      0.000012      0.000000
      0.000082      0.000012      0.000000
      0.000090      0.000012      0.000000
      0.000098      0.000012      0.000000
      0.000105      0.000012      0.000000
      0.000113      0.000012      0.000000
      0.000121      0.000012      0.000000
      0.000129      0.000012      0.000000
      0.000137      0.000012      0.000000
      0.000145      0.000012      0.000000
      0.000152      0.000012      0.000000
      0.000160      0.000012      0.000000
      0.000168      0.000012      0.000000
      0.000176      0.000012      0.000000
      0.000184      0.000012      0.000000
      0.000191      0.000012      0.000000
      0.000199      0.000012      0.000000
      0.000207      0.000012      0.000000
      0.000215      0.000012      0.000000
      0.000223      0.000012      0.000000
      0.000230      0.000012      0.000000
      0.000238      0.000012      0.000000
      0.000246      0.000012      0.000000
      0.000254      0.000012      0.000000
      0.000262      0.000012      0.000000
      0.000270      0.000012      0.000000
      0.000277      0.000012      0.000000
      0.000285      0.000012      0.000000
      0.000293      0.000012      0.000000
      0.000301      0.000012      0.000000
      0.000309      0.000012      0.000000
      0.000316      0.000012      0.000000
      0.000324      0.000012      0.000000
      0.000332      0.000012      0.000000
      0.000340      0.000012      0.000000
      0.000348      0.000012      0.000000
      0.000355      0.000012      0.000000
      0.000363      0.000012      0.000000
      0.000371      0.000012      0.000000
      0.000379      0.000012      0.000000
      0.000387      0.000012      0.000000
      0.000395      0.000012      0.000000
      0.000402      0.000012      0.000000
      0.000410      0.000012      0.000000
      0.000418      0.000012      0.000000
      0.000426      0.000012      0.000000
      0.000434      0.000012      0.000000
      0.000441      0.000012      0.000000
      0.000449      0.000012      0.000000
      0.000457      0.000012      0.000000
      0.000465      0.000012      0.000000
      0.000473      0.000012      0.000000
      0.000480      0.000012      0.000000
      0.000488      0.000012      0.000000
      0.000496      0.000012      0.000000
      0.000504      0.000012      0.000000
      0.000512      0.000012      0.000000
      0.000520      0.000012      0.000000
      0.000527      0.000012      0.000000
      0.000535      0.000012      0.000000
      0.000543      0.000012      0.000000
      0.000551      0.000012      0.000000
      0.000559      0.000012      0.000000
      0.000566      0.000012      0.000000
      0.000574      0.000012      0.000000
      0.000582      0.000012      0.000000
      0.000590      0.000012      0.000000
      0.000598      0.000012      0.000000
      0.000605      0.000012      0.000000
      0.000613      0.000012      0.000000
      0.000621      0.000012      0.000000
      0.000629      0.000012      0.000000
      0.000637      0.000012      0.000000
      0.000645      0.000012      0.000000
      0.000652      0.000012      0.000000
      0.000660      0.000012      0.000000
      0.000668      0.000012      0.000000
      0.000676      0.000012      0.000000
      0.000684      0.000012      0.000000
      0.000691      0.000012      0.000000
      0.000699      0.000012      0.000000
      0.000707      0.000012      0.000000
      0.000715      0.000012      0.000000
      0.000723      0.000012      0.000000
      0.000730      0.000012      0.000000
      0.000738      0.000012      0.000000
      0.000746      0.000012      0.000000
      0.000754      0.000012      0.000000
      0.000762      0.000012      0.000000
      0.000770      0.000012      0.000000
      0.000777      0.000012      0.000000
      0.000785      0.000012      0.000000
[...]
POINT_DATA 16384
SCALARS rhoe double
LOOKUP_TABLE default
 0.916075E-013
 0.912719E-013
 0.915340E-013
 0.915717E-013
 0.916795E-013
 0.917683E-013
 0.918612E-013
 0.919530E-013
 0.920447E-013
 0.921361E-013
 0.922272E-013
 0.923180E-013
 0.924085E-013
 0.924987E-013
 0.925886E-013
 0.926781E-013
 0.927672E-013
 0.928559E-013
 0.929442E-013
 0.930320E-013
 0.931192E-013
 0.932060E-013
 0.932922E-013
 0.933777E-013
 0.934626E-013
 0.935468E-013
 0.936302E-013
 0.937127E-013
 0.937944E-013
 0.938752E-013
 0.939549E-013
 0.940336E-013
 0.941111E-013
 0.941874E-013
 0.942624E-013
 0.943360E-013
 0.944082E-013
 0.944788E-013
 0.945478E-013
 0.946151E-013
 0.946807E-013
 0.947443E-013
 0.948060E-013
 0.948656E-013
 0.949231E-013
 0.949783E-013
 0.950313E-013
 0.950818E-013
 0.951299E-013
 0.951754E-013
 0.952182E-013
 0.952583E-013
 0.952957E-013
 0.953301E-013
 0.953617E-013
 0.953903E-013
 0.954158E-013
 0.954383E-013
 0.954576E-013
 0.954738E-013
 0.954868E-013
 0.954966E-013
 0.955031E-013
 0.955063E-013
 0.955063E-013
 0.955031E-013
 0.954966E-013
 0.954868E-013
 0.954738E-013
 0.954577E-013
 0.954383E-013
 0.954158E-013
 0.953903E-013
 0.953617E-013
 0.953302E-013
 0.952957E-013
 0.952583E-013
 0.952182E-013
 0.951754E-013
 0.951299E-013
 0.950818E-013
 0.950313E-013
 0.949784E-013
 0.949231E-013
 0.948656E-013
 0.948060E-013
 0.947443E-013
 0.946807E-013
 0.946152E-013
 0.945478E-013
 0.944788E-013
 0.944082E-013
 0.943360E-013
 0.942624E-013
 0.941874E-013
 0.941111E-013
 0.940336E-013
 0.939549E-013
 0.938752E-013
 0.937944E-013
 0.937127E-013
 0.936302E-013
 0.935468E-013
 0.934626E-013
 0.933777E-013
 0.932922E-013
 0.932060E-013
 0.931192E-013
 0.930320E-013
 0.929442E-013
 0.928559E-013
 0.927672E-013
 0.926781E-013
 0.925886E-013
 0.924987E-013
 0.924086E-013
 0.923180E-013
 0.922272E-013
 0.921361E-013
 0.920447E-013
 0.919530E-013
 0.918612E-013
 0.917683E-013
 0.916795E-013
 0.915717E-013
 0.915340E-013
 0.912719E-013
 0.916075E-013
 0.912719E-013
 0.908040E-013
 0.909484E-013
 0.908259E-013
 0.907960E-013
 0.907399E-013
 0.906902E-013
 0.906394E-013
 0.905890E-013
 0.905386E-013
 0.904885E-013
 0.904384E-013
 0.903886E-013
 0.903389E-013
 0.902895E-013
 0.902402E-013
 0.901912E-013
 0.901423E-013
 0.900937E-013
 0.900454E-013
 0.899974E-013
 0.899496E-013
 0.899022E-013
 0.898551E-013
 0.898083E-013
 0.897620E-013
 0.897161E-013
 0.896706E-013
 0.896256E-013
 0.895812E-013
 0.895372E-013
 0.894939E-013
 0.894512E-013
 0.894092E-013
 0.893679E-013
 0.893273E-013
 0.892875E-013
 0.892486E-013
 0.892106E-013
 0.891735E-013
 0.891374E-013
 0.891023E-013
 0.890683E-013
 0.890355E-013
 0.890038E-013
 0.889733E-013
 0.889441E-013
 0.889163E-013
 0.888898E-013
 0.888647E-013
 0.888411E-013
 0.888189E-013
 0.887984E-013
 0.887793E-013
 0.887619E-013
 0.887462E-013
 0.887321E-013
 0.887197E-013
 0.887090E-013
 0.887001E-013
 0.886929E-013
 0.886876E-013
 0.886840E-013
 0.886822E-013
 0.886822E-013
 0.886840E-013
 0.886876E-013
 0.886930E-013
 0.887001E-013
 0.887090E-013
 0.887197E-013
 0.887321E-013
 0.887462E-013
 0.887620E-013
 0.887794E-013
 0.887984E-013
 0.888190E-013
 0.888411E-013
 0.888647E-013
 0.888898E-013
 0.889163E-013
 0.889442E-013
 0.889734E-013
 0.890038E-013
 0.890355E-013
 0.890684E-013
 0.891024E-013
 0.891374E-013
 0.891736E-013
 0.892107E-013
 0.892487E-013
 0.892876E-013
 0.893274E-013
 0.893679E-013
 0.894093E-013
 0.894513E-013
 0.894940E-013
 0.895373E-013
 0.895812E-013
 0.896257E-013
 0.896707E-013
 0.897161E-013
 0.897621E-013
 0.898084E-013
 0.898551E-013
 0.899022E-013
 0.899497E-013
 0.899974E-013
 0.900455E-013
 0.900938E-013
 0.901424E-013
 0.901912E-013
 0.902403E-013
 0.902895E-013
 0.903390E-013
 0.903887E-013
 0.904385E-013
 0.904885E-013
 0.905387E-013
 0.905890E-013
 0.906394E-013
 0.906903E-013
 0.907399E-013
 0.907960E-013
 0.908259E-013
 0.909485E-013
 0.908041E-013
 0.912719E-013
 0.915340E-013
 0.909484E-013
 0.912486E-013
 0.911679E-013
 0.912188E-013
 0.912321E-013
 0.912544E-013
 0.912747E-013
 0.912953E-013
 0.913158E-013
 0.913362E-013
 0.913566E-013
 0.913769E-013
 0.913972E-013
 0.914173E-013
 0.914374E-013
 0.914573E-013
 0.914772E-013
 0.914970E-013
 0.915167E-013
 0.915362E-013
 0.915557E-013
 0.915750E-013
 0.915941E-013
 0.916131E-013
 0.916320E-013
 0.916507E-013
 0.916692E-013
 0.916875E-013
 0.917056E-013
 0.917234E-013
 0.917410E-013
 0.917584E-013
 0.917755E-013
 0.917923E-013
 0.918088E-013
 0.918250E-013
 0.918408E-013
 0.918563E-013
 0.918713E-013
 0.918860E-013
 0.919003E-013
 0.919141E-013
 0.919275E-013
 0.919403E-013
 0.919527E-013
 0.919646E-013
 0.919759E-013
 0.919867E-013
 0.919969E-013
 0.920065E-013
 0.920155E-013
 0.920238E-013
 0.920316E-013
 0.920387E-013
 0.920451E-013
 0.920508E-013
 0.920558E-013
 0.920602E-013
 0.920638E-013
 0.920667E-013
 0.920689E-013
 0.920703E-013
 0.920711E-013
 0.920711E-013
 0.920703E-013
 0.920689E-013
 0.920667E-013
 0.920638E-013
 0.920601E-013
 0.920558E-013
 0.920508E-013
 0.920450E-013
 0.920386E-013
 0.920316E-013
 0.920238E-013
 0.920155E-013
 0.920065E-013
 0.919969E-013
 0.919867E-013
 0.919759E-013
 0.919646E-013
 0.919527E-013
 0.919403E-013
 0.919274E-013
 0.919141E-013
 0.919002E-013
 0.918860E-013
 0.918713E-013
 0.918562E-013
 0.918408E-013
 0.918249E-013
 0.918088E-013
 0.917923E-013
 0.917755E-013
 0.917584E-013
 0.917410E-013
 0.917234E-013
 0.917055E-013
 0.916874E-013
 0.916691E-013
 0.916506E-013
 0.916320E-013
 0.916131E-013
 0.915941E-013
 0.915749E-013
 0.915556E-013
 0.915362E-013
 0.915166E-013
 0.914970E-013
 0.914772E-013
 0.914573E-013
 0.914373E-013
 0.914173E-013
 0.913971E-013
 0.913769E-013
 0.913566E-013
 0.913362E-013
 0.913158E-013
 0.912953E-013
 0.912747E-013
 0.912543E-013
 0.912320E-013
 0.912188E-013
 0.911679E-013
 0.912486E-013
 0.909485E-013
 0.915340E-013
 0.915717E-013
 0.908259E-013
 0.911679E-013
 0.910327E-013
 0.910645E-013
 0.910482E-013
 0.910437E-013
 0.910367E-013
 0.910301E-013
 0.910236E-013
 0.910170E-013
 0.910105E-013
 0.910040E-013
 0.909975E-013
 0.909911E-013
 0.909846E-013
 0.909782E-013
 0.909719E-013
 0.909655E-013
 0.909592E-013
 0.909530E-013
 0.909468E-013
 0.909406E-013
 0.909344E-013
 0.909284E-013
 0.909223E-013
 0.909163E-013
 0.909104E-013
 0.909046E-013
 0.908988E-013
 0.908931E-013
 0.908874E-013
 0.908819E-013
 0.908764E-013
 0.908710E-013
 0.908657E-013
 0.908606E-013
 0.908555E-013
 0.908505E-013
 0.908457E-013
 0.908410E-013
 0.908365E-013
 0.908320E-013
 0.908278E-013
 0.908236E-013
 0.908197E-013
 0.908159E-013
 0.908123E-013
 0.908088E-013
 0.908056E-013
 0.908025E-013
 0.907996E-013
 0.907969E-013
 0.907945E-013
 0.907922E-013
 0.907901E-013
 0.907883E-013
 0.907867E-013
 0.907853E-013
 0.907842E-013
 0.907832E-013
 0.907825E-013
 0.907821E-013
 0.907818E-013
 0.907818E-013
 0.907821E-013
 0.907825E-013
 0.907832E-013
 0.907842E-013
 0.907853E-013
 0.907867E-013
 0.907883E-013
 0.907902E-013
 0.907922E-013
 0.907945E-013
 0.907969E-013
 0.907996E-013
 0.908025E-013
 0.908056E-013
 0.908088E-013
 0.908123E-013
 0.908159E-013
 0.908197E-013
 0.908236E-013
 0.908278E-013
 0.908320E-013
 0.908365E-013
 0.908410E-013
 0.908457E-013
 0.908506E-013
 0.908555E-013
 0.908606E-013
 0.908657E-013
 0.908710E-013
 0.908764E-013
 0.908819E-013
 0.908874E-013
 0.908931E-013
 0.908988E-013
 0.909046E-013
 0.909104E-013
 0.909164E-013
 0.909223E-013
 0.909284E-013
 0.909345E-013
 0.909406E-013
 0.909468E-013
 0.909530E-013
 0.909593E-013
 0.909656E-013
 0.909719E-013
 0.909783E-013
 0.909847E-013
 0.909911E-013
 0.909975E-013
 0.910040E-013
 0.910105E-013
 0.910170E-013
 0.910236E-013
 0.910302E-013
 0.910367E-013
 0.910437E-013
 0.910482E-013
 0.910645E-013
 0.910327E-013
 0.911679E-013
 0.908259E-013
 0.915717E-013
 0.916795E-013
 0.907960E-013
 0.912188E-013
 0.910645E-013
 0.911131E-013
 0.911031E-013
 0.911074E-013
 0.911086E-013
 0.911104E-013
 0.911122E-013
 0.911139E-013
 0.911156E-013
 0.911173E-013
 0.911190E-013
 0.911207E-013
 0.911224E-013
 0.911241E-013
 0.911258E-013
 0.911274E-013
 0.911291E-013
 0.911307E-013
 0.911324E-013
 0.911340E-013
 0.911356E-013
 0.911372E-013
 0.911388E-013
 0.911404E-013
 0.911419E-013
 0.911435E-013
 0.911450E-013
 0.911465E-013
 0.911480E-013
 0.911494E-013
 0.911509E-013
 0.911523E-013
 0.911537E-013
 0.911551E-013
 0.911564E-013
 0.911577E-013
 0.911590E-013
 0.911602E-013
 0.911614E-013
 0.911626E-013
 0.911637E-013
 0.911648E-013
 0.911658E-013
 0.911668E-013
 0.911678E-013
 0.911687E-013
 0.911696E-013
 0.911704E-013
 0.911711E-013
 0.911718E-013
 0.911725E-013
 0.911731E-013
 0.911736E-013
 0.911741E-013
 0.911745E-013
 0.911749E-013
 0.911752E-013
 0.911755E-013
 0.911756E-013
 0.911758E-013
 0.911758E-013
 0.911758E-013
 0.911758E-013
 0.911756E-013
 0.911755E-013
 0.911752E-013
 0.911749E-013
 0.911745E-013
 0.911741E-013
 0.911736E-013
 0.911731E-013
 0.911725E-013
 0.911718E-013
 0.911711E-013
 0.911704E-013
 0.911696E-013
 0.911687E-013
 0.911678E-013
 0.911668E-013
 0.911658E-013
 0.911648E-013
 0.911637E-013
 0.911626E-013
 0.911614E-013
 0.911602E-013
 0.911590E-013
 0.911577E-013
 0.911564E-013
 0.911551E-013
 0.911537E-013
 0.911523E-013
 0.911509E-013
 0.911494E-013
 0.911480E-013
 0.911465E-013
 0.911450E-013
 0.911435E-013
 0.911419E-013
 0.911404E-013
 0.911388E-013
 0.911372E-013
 0.911356E-013
 0.911340E-013
 0.911324E-013
 0.911307E-013
 0.911291E-013
 0.911274E-013
 0.911258E-013
 0.911241E-013
 0.911224E-013
 0.911207E-013
 0.911190E-013
 0.911173E-013
 0.911156E-013
 0.911139E-013
 0.911122E-013
 0.911104E-013
 0.911086E-013
 0.911074E-013
 0.911031E-013
 0.911131E-013
 0.910645E-013
 0.912188E-013
 0.907960E-013
 0.916795E-013
 0.917683E-013
 0.907399E-013
 0.912321E-013
 0.910482E-013
 0.911031E-013
 0.910888E-013
 0.910914E-013
 0.910905E-013
 0.910902E-013
 0.910898E-013
 0.910894E-013
 0.910890E-013
 0.910886E-013
 0.910883E-013
 0.910879E-013
 0.910875E-013
 0.910871E-013
 0.910868E-013
 0.910864E-013
 0.910860E-013
 0.910856E-013
 0.910853E-013
 0.910849E-013
 0.910846E-013
 0.910842E-013
 0.910839E-013
 0.910835E-013
 0.910832E-013
 0.910828E-013
 0.910825E-013
 0.910822E-013
 0.910818E-013
 0.910815E-013
 0.910812E-013
 0.910809E-013
 0.910806E-013
 0.910803E-013
 0.910800E-013
 0.910797E-013
 0.910794E-013
 0.910792E-013
 0.910789E-013
 0.910786E-013
 0.910784E-013
 0.910782E-013
 0.910779E-013
 0.910777E-013
 0.910775E-013
 0.910773E-013
 0.910771E-013
 0.910770E-013
 0.910768E-013
 0.910766E-013
 0.910765E-013
 0.910764E-013
 0.910762E-013
 0.910761E-013
 0.910761E-013
 0.910760E-013
 0.910759E-013
 0.910759E-013
 0.910758E-013
 0.910758E-013
 0.910758E-013
 0.910758E-013
 0.910758E-013
 0.910758E-013
 0.910759E-013
 0.910759E-013
 0.910760E-013
 0.910761E-013
 0.910761E-013
 0.910763E-013
 0.910764E-013
 0.910765E-013
 0.910766E-013
 0.910768E-013
 0.910770E-013
 0.910771E-013
 0.910773E-013
 0.910775E-013
 0.910777E-013
 0.910779E-013
 0.910782E-013
 0.910784E-013
 0.910786E-013
 0.910789E-013
 0.910792E-013
 0.910794E-013
 0.910797E-013
 0.910800E-013
 0.910803E-013
 0.910806E-013
 0.910809E-013
 0.910812E-013
 0.910815E-013
 0.910818E-013
 0.910822E-013
 0.910825E-013
 0.910828E-013
 0.910832E-013
 0.910835E-013
 0.910839E-013
 0.910842E-013
 0.910846E-013
 0.910849E-013
 0.910853E-013
 0.910857E-013
 0.910860E-013
 0.910864E-013
 0.910868E-013
 0.910871E-013
 0.910875E-013
 0.910879E-013
 0.910883E-013
 0.910886E-013
 0.910890E-013
 0.910894E-013
 0.910898E-013
 0.910902E-013
 0.910905E-013
 0.910914E-013
 0.910888E-013
 0.911031E-013
 0.910482E-013
 0.912320E-013
 0.907399E-013
 0.917683E-013
 0.918612E-013
 0.906902E-013
 0.912544E-013
 0.910437E-013
 0.911074E-013
 0.910914E-013
 0.910949E-013
 0.910944E-013
 0.910946E-013
 0.910946E-013
 0.910947E-013
 0.910948E-013
 0.910948E-013
 0.910949E-013
 0.910950E-013
 0.910951E-013
 0.910951E-013
 0.910952E-013
 0.910953E-013
 0.910953E-013
 0.910954E-013
 0.910955E-013
 0.910956E-013
 0.910956E-013
 0.910957E-013
 0.910958E-013
 0.910958E-013
 0.910959E-013
 0.910960E-013
 0.910960E-013
 0.910961E-013
 0.910962E-013
 0.910962E-013
 0.910963E-013
 0.910964E-013
 0.910964E-013
 0.910965E-013
 0.910965E-013
 0.910966E-013
 0.910967E-013
 0.910967E-013
 0.910968E-013
 0.910968E-013
 0.910969E-013
 0.910969E-013
 0.910970E-013
 0.910970E-013
 0.910971E-013
 0.910971E-013
 0.910972E-013
 0.910972E-013
 0.910972E-013
 0.910973E-013
 0.910973E-013
 0.910973E-013
 0.910974E-013
 0.910974E-013
 0.910974E-013
 0.910974E-013
 0.910975E-013
 0.910975E-013
 0.910975E-013
 0.910975E-013
 0.910975E-013
 0.910975E-013
 0.910975E-013
 0.910975E-013
 0.910975E-013
 0.910975E-013
 0.910974E-013
 0.910974E-013
 0.910974E-013
 0.910974E-013
 0.910973E-013
 0.910973E-013
 0.910973E-013
 0.910972E-013
 0.910972E-013
 0.910972E-013
 0.910971E-013
 0.910971E-013
 0.910970E-013
 0.910970E-013
 0.910969E-013
 0.910969E-013
 0.910968E-013
 0.910968E-013
 0.910967E-013
 0.910967E-013
 0.910966E-013
 0.910966E-013
 0.910965E-013
 0.910964E-013
 0.910964E-013
 0.910963E-013
 0.910962E-013
 0.910962E-013
 0.910961E-013
 0.910960E-013
 0.910960E-013
 0.910959E-013
 0.910958E-013
 0.910958E-013
 0.910957E-013
 0.910956E-013
 0.910956E-013
 0.910955E-013
 0.910954E-013
 0.910953E-013
 0.910953E-013
 0.910952E-013
 0.910951E-013
 0.910951E-013
 0.910950E-013
 0.910949E-013
 0.910948E-013
 0.910948E-013
 0.910947E-013
 0.910946E-013
 0.910946E-013
 0.910944E-013
 0.910949E-013
 0.910914E-013
 0.911074E-013
 0.910437E-013
 0.912543E-013
 0.906903E-013
 0.918612E-013
 0.919530E-013
 0.906394E-013
 0.912747E-013
 0.910367E-013
 0.911086E-013
 0.910905E-013
 0.910944E-013
 0.910936E-013
 0.910937E-013
 0.910937E-013
 0.910937E-013
 0.910937E-013
 0.910937E-013
 0.910937E-013
 0.910936E-013
 0.910936E-013
 0.910936E-013
 0.910936E-013
 0.910936E-013
 0.910936E-013
 0.910936E-013
 0.910936E-013
 0.910935E-013
 0.910935E-013
 0.910935E-013
 0.910935E-013
 0.910935E-013
 0.910935E-013
 0.910935E-013
 0.910935E-013
 0.910935E-013
 0.910935E-013
 0.910935E-013
 0.910935E-013
 0.910935E-013
 0.910934E-013
 0.910934E-013
 0.910934E-013
 0.910934E-013
 0.910934E-013
 0.910934E-013
 0.910934E-013
 0.910934E-013
 0.910934E-013
 0.910934E-013
 0.910934E-013
 0.910934E-013
 0.910934E-013
 0.910934E-013
 0.910934E-013
 0.910934E-013
 0.910934E-013
 0.910934E-013
 0.910934E-013
 0.910934E-013
 0.910934E-013
 0.910934E-013
 0.910934E-013
 0.910934E-013
 0.910934E-013
 0.910934E-013
 0.910934E-013
 0.910934E-013
 0.910934E-013
 0.910934E-013
 0.910934E-013
 0.910934E-013
 0.910934E-013
 0.910934E-013
 0.910934E-013
 0.910934E-013
 0.910934E-013
 0.910934E-013
 0.910934E-013
 0.910934E-013
 0.910934E-013
 0.910934E-013
 0.910934E-013
 0.910934E-013
 0.910934E-013
 0.910934E-013
 0.910934E-013
 0.910934E-013
 0.910934E-013
 0.910934E-013
 0.910934E-013
 0.910934E-013
 0.910934E-013
 0.910934E-013
 0.910934E-013
 0.910934E-013
 0.910934E-013
 0.910934E-013
 0.910935E-013
 0.910935E-013
 0.910935E-013
 0.910935E-013
 0.910935E-013
 0.910935E-013
 0.910935E-013
 0.910935E-013
 0.910935E-013
 0.910935E-013
 0.910935E-013
 0.910935E-013
 0.910936E-013
 0.910936E-013
 0.910936E-013
 0.910936E-013
 0.910936E-013
 0.910936E-013
 0.910936E-013
 0.910936E-013
 0.910936E-013
 0.910937E-013
 0.910937E-013
 0.910937E-013
 0.910937E-013
 0.910937E-013
 0.910937E-013
 0.910936E-013
 0.910944E-013
 0.910905E-013
 0.911086E-013
 0.910367E-013
 0.912747E-013
 0.906394E-013
 0.919530E-013
 0.920447E-013
 0.905890E-013
 0.912953E-013
 0.910301E-013
 0.911104E-013
 0.910902E-013
 0.910946E-013
 0.910937E-013
 0.910939E-013
 0.910938E-013
 0.910939E-013
 0.910939E-013
 0.910939E-013
 0.910939E-013
 0.910939E-013
 0.910939E-013
 0.910939E-013
 0.910939E-013
 0.910939E-013
 0.910939E-013
 0.910939E-013
 0.910939E-013
 0.910939E-013
 0.910939E-013
 0.910939E-013
 0.910939E-013
 0.910939E-013
 0.910939E-013
 0.910939E-013
 0.910939E-013
 0.910939E-013
 0.910939E-013
 0.910939E-013
 0.910939E-013
 0.910939E-013
 0.910940E-013
 0.910940E-013
 0.910940E-013
 0.910940E-013
 0.910940E-013
 0.910940E-013
 0.910940E-013
 0.910940E-013
 0.910940E-013
 0.910940E-013
 0.910940E-013
 0.910940E-013
 0.910941E-013
 0.910941E-013
 0.910941E-013
 0.910941E-013
 0.910941E-013
 0.910941E-013
 0.910941E-013
 0.910941E-013
 0.910941E-013
 0.910941E-013
 0.910941E-013
 0.910941E-013
 0.910941E-013
 0.910941E-013
 0.910941E-013
 0.910941E-013
 0.910941E-013
 0.910941E-013
 0.910941E-013
 0.910941E-013
 0.910941E-013
 0.910941E-013
 0.910941E-013
 0.910941E-013
 0.910941E-013
 0.910941E-013
 0.910941E-013
 0.910941E-013
 0.910941E-013
 0.910941E-013
 0.910941E-013
 0.910941E-013
 0.910941E-013
 0.910941E-013
 0.910940E-013
 0.910940E-013
 0.910940E-013
 0.910940E-013
 0.910940E-013
 0.910940E-013
 0.910940E-013
 0.910940E-013
 0.910940E-013
 0.910940E-013
 0.910940E-013
 0.910940E-013
 0.910939E-013
 0.910939E-013
 0.910939E-013
 0.910939E-013
 0.910939E-013
 0.910939E-013
 0.910939E-013
 0.910939E-013
 0.910939E-013
 0.910939E-013
 0.910939E-013
 0.910939E-013
 0.910939E-013
 0.910939E-013
 0.910939E-013
 0.910939E-013
 0.910939E-013
 0.910939E-013
 0.910939E-013
 0.910939E-013
 0.910939E-013
 0.910939E-013
 0.910939E-013
 0.910939E-013
 0.910939E-013
 0.910939E-013
 0.910939E-013
 0.910937E-013
 0.910946E-013
 0.910902E-013
 0.911104E-013
 0.910302E-013
 0.912953E-013
 0.905890E-013
 0.920447E-013
 0.921361E-013
 0.905386E-013
 0.913158E-013
 0.910236E-013
 0.911122E-013
 0.910898E-013
 0.910946E-013
 0.910937E-013
 0.910938E-013
 0.910938E-013
 0.910938E-013
 0.910938E-013
 0.910938E-013
 0.910938E-013
 0.910938E-013
 0.910938E-013
 0.910938E-013
 0.910938E-013
 0.910938E-013
 0.910938E-013
 0.910938E-013
 0.910938E-013
 0.910938E-013
 0.910938E-013
 0.910938E-013
 0.910938E-013
 0.910938E-013
 0.910939E-013
 0.910939E-013
 0.910939E-013
 0.910939E-013
 0.910939E-013
 0.910939E-013
 0.910939E-013
 0.910939E-013
 0.910939E-013
 0.910939E-013
 0.910939E-013
 0.910939E-013
 0.910939E-013
 0.910939E-013
 0.910939E-013
 0.910939E-013
 0.910940E-013
 0.910940E-013
 0.910940E-013
 0.910940E-013
 0.910940E-013
 0.910940E-013
 0.910940E-013
 0.910940E-013
 0.910940E-013
 0.910940E-013
 0.910940E-013
 0.910940E-013
 0.910941E-013
 0.910941E-013
 0.910941E-013
 0.910941E-013
 0.910941E-013
 0.910941E-013
 0.910941E-013
 0.910941E-013
 0.910941E-013
 0.910941E-013
 0.910941E-013
 0.910941E-013
 0.910941E-013
 0.910941E-013
 0.910941E-013
 0.910941E-013
 0.910941E-013
 0.910941E-013
 0.910940E-013
 0.910940E-013
 0.910940E-013
 0.910940E-013
 0.910940E-013
 0.910940E-013
 0.910940E-013
 0.910940E-013
 0.910940E-013
 0.910940E-013
 0.910940E-013
 0.910940E-013
 0.910939E-013
 0.910939E-013
 0.910939E-013
 0.910939E-013
 0.910939E-013
 0.910939E-013
 0.910939E-013
 0.910939E-013
 0.910939E-013
 0.910939E-013
 0.910939E-013
 0.910939E-013
 0.910939E-013
 0.910939E-013
 0.910939E-013
 0.910939E-013
 0.910938E-013
 0.910938E-013
 0.910938E-013
 0.910938E-013
 0.910938E-013
 0.910938E-013
 0.910938E-013
 0.910938E-013
 0.910938E-013
 0.910938E-013
 0.910938E-013
 0.910938E-013
 0.910938E-013
 0.910938E-013
 0.910938E-013
 0.910938E-013
 0.910938E-013
 0.910938E-013
 0.910939E-013
 0.910937E-013
 0.910946E-013
 0.910898E-013
 0.911122E-013
 0.910236E-013
 0.913158E-013
 0.905387E-013
 0.921361E-013
 0.922272E-013
 0.904885E-013
 0.913362E-013
 0.910170E-013
 0.911139E-013
 0.910894E-013
 0.910947E-013
 0.910937E-013
 0.910939E-013
 0.910938E-013
 0.910938E-013
 0.910938E-013
 0.910938E-013
 0.910938E-013
 0.910938E-013
 0.910938E-013
 0.910938E-013
 0.910938E-013
 0.910938E-013
 0.910938E-013
 0.910938E-013
 0.910938E-013
 0.910938E-013
 0.910939E-013
 0.910939E-013
 0.910939E-013
 0.910939E-013
 0.910939E-013
 0.910939E-013
 0.910939E-013
 0.910939E-013
 0.910939E-013
 0.910939E-013
 0.910939E-013
 0.910939E-013
 0.910939E-013
 0.910939E-013
 0.910939E-013
 0.910939E-013
 0.910939E-013
 0.910940E-013
 0.910940E-013
 0.910940E-013
 0.910940E-013
 0.910940E-013
 0.910940E-013
 0.910940E-013
 0.910940E-013
 0.910940E-013