# vtk DataFile Version 3.0
Solution data
ASCII
DATASET STRUCTURED_GRID
DIMENSIONS 128 128 1
POINTS 16384  double
      0.000004      0.000004      0.000000
      0.000012      0.000004      0.000000
      0.000020      0.000004      0.000000
      0.000027      0.000004      0.000000
      0.000035      0.000004      0.000000
      0.000043      0.000004      0.000000
      0.000051      0.000004      0.000000
      0.000059      0.000004      0.000000
      0.000066      0.000004      0.000000
      0.000074      0.000004      0.000000
      0.000082      0.000004      0.000000
      0.000090      0.000004      0.000000
      0.000098      0.000004      0.000000
      0.000105      0.000004      0.000000
      0.000113      0.000004      0.000000
      0.000121      0.000004      0.000000
      0.000129      0.000004      0.000000
      0.000137      0.000004      0.000000
      0.000145      0.000004      0.000000
      0.000152      0.000004      0.000000
      0.000160      0.000004      0.000000
      0.000168      0.000004      0.000000
      0.000176      0.000004      0.000000
      0.000184      0.000004      0.000000
      0.000191      0.000004      0.000000
      0.000199      0.000004      0.000000
      0.000207      0.000004      0.000000
      0.000215      0.000004      0.000000
      0.000223      0.000004      0.000000
      0.000230      0.000004      0.000000
      0.000238      0.000004      0.000000
      0.000246      0.000004      0.000000
      0.000254      0.000004      0.000000
      0.000262      0.000004      0.000000
      0.000270      0.000004      0.000000
      0.000277      0.000004      0.000000
      0.000285      0.000004      0.000000
      0.000293      0.000004      0.000000
      0.000301      0.000004      0.000000
      0.000309      0.000004      0.000000
      0.000316      0.000004      0.000000
      0.000324      0.000004      0.000000
      0.000332      0.000004      0.000000
      0.000340      0.000004      0.000000
      0.000348      0.000004      0.000000
      0.000355      0.000004      0.000000
      0.000363      0.000004      0.000000
      0.000371      0.000004      0.000000
      0.000379      0.000004      0.000000
      0.000387      0.000004      0.000000
      0.000395      0.000004      0.000000
      0.000402      0.000004      0.000000
      0.000410      0.000004      0.000000
      0.000418      0.000004      0.000000
      0.000426      0.000004      0.000000
      0.000434      0.000004      0.000000
      0.000441      0.000004      0.000000
      0.000449      0.000004      0.000000
      0.000457      0.000004      0.000000
      0.000465      0.000004      0.000000
      0.000473      0.000004      0.000000
      0.000480      0.000004      0.000000
      0.000488      0.000004      0.000000
      0.000496      0.000004      0.000000
      0.000504      0.000004      0.000000
      0.000512      0.000004      0.000000
      0.000520      0.000004      0.000000
      0.000527      0.000004      0.000000
      0.000535      0.000004      0.000000
      0.000543      0.000004      0.000000
      0.000551      0.000004      0.000000
      0.000559      0.000004      0.000000
      0.000566      0.000004      0.000000
      0.000574      0.000004      0.000000
      0.000582      0.000004      0.000000
      0.000590      0.000004      0.000000
      0.000598      0.000004      0.000000
      0.000605      0.000004      0.000000
      0.000613      0.000004      0.000000
      0.000621      0.000004      0.000000
      0.000629      0.000004      0.000000
      0.000637      0.000004      0.000000
      0.000645      0.000004      0.000000
      0.000652      0.000004      0.000000
      0.000660      0.000004      0.000000
      0.000668      0.000004      0.000000
      0.000676      0.000004      0.000000
      0.000684      0.000004      0.000000
      0.000691      0.000004      0.000000
      0.000699      0.000004      0.000000
      0.000707      0.000004      0.000000
      0.000715      0.000004      0.000000
      0.000723      0.000004      0.000000
      0.000730      0.000004      0.000000
      0.000738      0.000004      0.000000
      0.000746      0.000004      0.000000
      0.000754      0.000004      0.000000
      0.000762      0.000004      0.000000
      0.000770      0.000004      0.000000
      0.000777      0.000004      0.000000
      0.000785      0.000004      0.000000
      0.000793      0.000004      0.000000
      0.000801      0.000004      0.000000
      0.000809      0.000004      0.000000
      0.000816      0.000004      0.000000
      0.000824      0.000004      0.000000
      0.000832      0.000004      0.000000
      0.000840      0.000004      0.000000
      0.000848      0.000004      0.000000
      0.000855      0.000004      0.000000
      0.000863      0.000004      0.000000
      0.000871      0.000004      0.000000
      0.000879      0.000004      0.000000
      0.000887      0.000004      0.000000
      0.000895      0.000004      0.000000
      0.000902      0.000004      0.000000
      0.000910      0.000004      0.000000
      0.000918      0.000004      0.000000
      0.000926      0.000004      0.000000
      0.000934      0.000004      0.000000
      0.000941      0.000004      0.000000
      0.000949      0.000004      0.000000
      0.000957      0.000004      0.000000
      0.000965      0.000004      0.000000
      0.000973      0.000004      0.000000
      0.000980      0.000004      0.000000
      0.000988      0.000004      0.000000
      0.000996      0.000004      0.000000
      0.000004      0.000012      0.000000
      0.000012      0.000012      0.000000
      0.000020      0.000012      0.000000
      0.000027      0.000012      0.000000
      0.000035      0.000012      0.000000
      0.000043      0.000012      0.000000
      0.000051      0.000012      0.000000
      0.000059      0.000012      0.000000
      0.000066      0.000012      0.000000
      0.000074      0.000012      0.000000
      0.000082      0.000012      0.000000
      0.000090      0.000012      0.000000
      0.000098      0.000012      0.000000
      0.000105      0.000012      0.000000
      0.000113      0.000012      0.000000
      0.000121      0.000012      0.000000
      0.000129      0.000012      0.000000
      0.000137      0.000012      0.000000
      0.000145      0.000012      0.000000
      0.000152      0.000012      0.000000
      0.000160      0.000012      0.000000
      0.000168      0.000012      0.000000
      0.000176      0.000012      0.000000
      0.000184      0.000012      0.000000
      0.000191      0.000012      0.000000
      0.000199      0.000012      0.000000
      0.000207      0.000012      0.000000
      0.000215      0.000012      0.000000
      0.000223      0.000012      0.000000
      0.000230      0.000012      0.000000
      0.000238      0.000012      0.000000
      0.000246      0.000012      0.000000
      0.000254      0.000012      0.000000
      0.000262      0.000012      0.000000
      0.000270      0.000012      0.000000
      0.000277      0.000012      0.000000
      0.000285      0.000012      0.000000
      0.000293      0.000012      0.000000
      0.000301      0.000012      0.000000
      0.000309      0.000012      0.000000
      0.000316      0.000012      0.000000
      0.000324      0.000012      0.000000
      0.000332      0.000012      0.000000
      0.000340      0.000012      0.000000
      0.000348      0.000012      0.000000
      0.000355      0.000012      0.000000
      0.000363      0.000012      0.000000
      0.000371      0.000012      0.000000
      0.000379      0.000012      0.000000
      0.000387      0.000012      0.000000
      0.000395      0.000012      0.000000
      0.000402      0.000012      0.000000
      0.000410      0.000012      0.000000
      0.000418      0.000012      0.000000
      0.000426      0.000012      0.000000
      0.000434      0.000012      0.000000
      0.000441      0.000012      0.000000
      0.000449      0.000012      0.000000
      0.000457      0.000012      0.000000
      0.000465      0.000012      0.000000
      0.000473      0.000012      0.000000
      0.000480      0.000012      0.000000
      0.000488      0.000012      0.000000
      0.000496      0.000012      0.000000
      0.000504      0.000012      0.000000
      0.000512      0.000012      0.000000
      0.000520      0.000012      0.000000
      0.000527      0.000012      0.000000
      0.000535      0.000012      0.000000
      0.000543      0.000012      0.000000
      0.000551      0.000012      0.000000
      0.000559      0.000012      0.000000
      0.000566      0.000012      0.000000
      0.000574      0.000012      0.000000
      0.000582      0.000012      0.000000
      0.000590      0.000012      0.000000
      0.000598      0.000012      0.000000
      0.000605      0.000012      0.000000
      0.000613      0.000012      0.000000
      0.000621      0.000012      0.000000
      0.000629      0.000012      0.000000
      0.000637      0.000012      0.000000
      0.000645      0.000012      0.000000
      0.000652      0.000012      0.000000
      0.000660      0.000012      0.000000
      0.000668      0.000012      0.000000
      0.000676      0.000012      0.000000
      0.000684      0.000012      0.000000
      0.000691      0.000012      0.000000
      0.000699      0.000012      0.000000
      0.000707      0.000012      0.000000
      0.000715      0.000012      0.000000
      0.000723      0.000012      0.000000
      0.000730      0.000012      0.000000
      0.000738      0.000012      0.000000
      0.000746      0.000012      0.000000
      0.000754      0.000012      0.000000
      0.000762      0.000012      0.000000
      0.000770      0.000012      0.000000
      0.000777      0.000012      0.000000
      0.000785      0.000012      0.000000
[...]
POINT_DATA 16384
SCALARS rhoe double
LOOKUP_TABLE default
 0.916046E-013
 0.912740E-013
 0.915332E-013
 0.915732E-013
 0.916807E-013
 0.917703E-013
 0.918636E-013
 0.919559E-013
 0.920480E-013
 0.921399E-013
 0.922315E-013
 0.923228E-013
 0.924137E-013
 0.925044E-013
 0.925947E-013
 0.926847E-013
 0.927743E-013
 0.928634E-013
 0.929522E-013
 0.930404E-013
 0.931282E-013
 0.932154E-013
 0.933020E-013
 0.933880E-013
 0.934734E-013
 0.935580E-013
 0.936418E-013
 0.937248E-013
 0.938070E-013
 0.938882E-013
 0.939683E-013
 0.940474E-013
 0.941254E-013
 0.942021E-013
 0.942775E-013
 0.943515E-013
 0.944241E-013
 0.944951E-013
 0.945645E-013
 0.946322E-013
 0.946981E-013
 0.947621E-013
 0.948241E-013
 0.948841E-013
 0.949419E-013
 0.949975E-013
 0.950507E-013
 0.951015E-013
 0.951498E-013
 0.951956E-013
 0.952387E-013
 0.952790E-013
 0.953166E-013
 0.953513E-013
 0.953830E-013
 0.954118E-013
 0.954374E-013
 0.954600E-013
 0.954795E-013
 0.954958E-013
 0.955088E-013
 0.955186E-013
 0.955252E-013
 0.955285E-013
 0.955285E-013
 0.955252E-013
 0.955186E-013
 0.955088E-013
 0.954958E-013
 0.954795E-013
 0.954600E-013
 0.954375E-013
 0.954118E-013
 0.953830E-013
 0.953513E-013
 0.953166E-013
 0.952790E-013
 0.952387E-013
 0.951956E-013
 0.951498E-013
 0.951015E-013
 0.950507E-013
 0.949975E-013
 0.949419E-013
 0.948841E-013
 0.948241E-013
 0.947621E-013
 0.946981E-013
 0.946322E-013
 0.945645E-013
 0.944951E-013
 0.944241E-013
 0.943515E-013
 0.942775E-013
 0.942021E-013
 0.941254E-013
 0.940474E-013
 0.939683E-013
 0.938882E-013
 0.938070E-013
 0.937249E-013
 0.936418E-013
 0.935580E-013
 0.934734E-013
 0.933880E-013
 0.933020E-013
 0.932154E-013
 0.931282E-013
 0.930404E-013
 0.929522E-013
 0.928634E-013
 0.927743E-013
 0.926847E-013
 0.925947E-013
 0.925044E-013
 0.924137E-013
 0.923228E-013
 0.922315E-013
 0.921399E-013
 0.920480E-013
 0.919559E-013
 0.918636E-013
 0.917703E-013
 0.916807E-013
 0.915731E-013
 0.915332E-013
 0.912740E-013
 0.916046E-013
 0.912740E-013
 0.908066E-013
 0.909490E-013
 0.908285E-013
 0.907981E-013
 0.907425E-013
 0.906930E-013
 0.906425E-013
 0.905923E-013
 0.905422E-013
 0.904923E-013
 0.904425E-013
 0.903930E-013
 0.903436E-013
 0.902943E-013
 0.902453E-013
 0.901965E-013
 0.901479E-013
 0.900996E-013
 0.900515E-013
 0.900037E-013
 0.899562E-013
 0.899090E-013
 0.898622E-013
 0.898157E-013
 0.897696E-013
 0.897239E-013
 0.896786E-013
 0.896339E-013
 0.895896E-013
 0.895459E-013
 0.895028E-013
 0.894604E-013
 0.894185E-013
 0.893774E-013
 0.893371E-013
 0.892975E-013
 0.892588E-013
 0.892209E-013
 0.891840E-013
 0.891481E-013
 0.891132E-013
 0.890794E-013
 0.890467E-013
 0.890151E-013
 0.889848E-013
 0.889558E-013
 0.889281E-013
 0.889017E-013
 0.888768E-013
 0.888532E-013
 0.888312E-013
 0.888107E-013
 0.887918E-013
 0.887745E-013
 0.887588E-013
 0.887448E-013
 0.887325E-013
 0.887218E-013
 0.887130E-013
 0.887058E-013
 0.887005E-013
 0.886969E-013
 0.886951E-013
 0.886951E-013
 0.886969E-013
 0.887005E-013
 0.887058E-013
 0.887130E-013
 0.887219E-013
 0.887325E-013
 0.887448E-013
 0.887588E-013
 0.887745E-013
 0.887918E-013
 0.888108E-013
 0.888313E-013
 0.888533E-013
 0.888768E-013
 0.889018E-013
 0.889281E-013
 0.889558E-013
 0.889849E-013
 0.890152E-013
 0.890467E-013
 0.890794E-013
 0.891133E-013
 0.891482E-013
 0.891841E-013
 0.892210E-013
 0.892588E-013
 0.892976E-013
 0.893371E-013
 0.893775E-013
 0.894186E-013
 0.894604E-013
 0.895029E-013
 0.895460E-013
 0.895897E-013
 0.896339E-013
 0.896787E-013
 0.897239E-013
 0.897696E-013
 0.898157E-013
 0.898622E-013
 0.899091E-013
 0.899563E-013
 0.900038E-013
 0.900516E-013
 0.900997E-013
 0.901480E-013
 0.901966E-013
 0.902454E-013
 0.902944E-013
 0.903436E-013
 0.903930E-013
 0.904426E-013
 0.904923E-013
 0.905422E-013
 0.905923E-013
 0.906425E-013
 0.906930E-013
 0.907425E-013
 0.907981E-013
 0.908285E-013
 0.909491E-013
 0.908066E-013
 0.912740E-013
 0.915332E-013
 0.909490E-013
 0.912454E-013
 0.911668E-013
 0.912162E-013
 0.912294E-013
 0.912513E-013
 0.912712E-013
 0.912915E-013
 0.913116E-013
 0.913317E-013
 0.913517E-013
 0.913717E-013
 0.913915E-013
 0.914113E-013
 0.914310E-013
 0.914506E-013
 0.914702E-013
 0.914896E-013
 0.915089E-013
 0.915281E-013
 0.915472E-013
 0.915662E-013
 0.915850E-013
 0.916037E-013
 0.916222E-013
 0.916406E-013
 0.916587E-013
 0.916767E-013
 0.916945E-013
 0.917120E-013
 0.917294E-013
 0.917464E-013
 0.917632E-013
 0.917797E-013
 0.917959E-013
 0.918118E-013
 0.918273E-013
 0.918425E-013
 0.918574E-013
 0.918718E-013
 0.918858E-013
 0.918994E-013
 0.919125E-013
 0.919252E-013
 0.919373E-013
 0.919490E-013
 0.919601E-013
 0.919707E-013
 0.919807E-013
 0.919901E-013
 0.919990E-013
 0.920072E-013
 0.920148E-013
 0.920218E-013
 0.920281E-013
 0.920337E-013
 0.920386E-013
 0.920429E-013
 0.920464E-013
 0.920493E-013
 0.920515E-013
 0.920529E-013
 0.920536E-013
 0.920536E-013
 0.920529E-013
 0.920515E-013
 0.920493E-013
 0.920464E-013
 0.920429E-013
 0.920386E-013
 0.920337E-013
 0.920280E-013
 0.920217E-013
 0.920148E-013
 0.920072E-013
 0.919990E-013
 0.919901E-013
 0.919807E-013
 0.919707E-013
 0.919601E-013
 0.919490E-013
 0.919373E-013
 0.919251E-013
 0.919125E-013
 0.918993E-013
 0.918858E-013
 0.918717E-013
 0.918573E-013
 0.918425E-013
 0.918273E-013
 0.918118E-013
 0.917959E-013
 0.917797E-013
 0.917632E-013
 0.917464E-013
 0.917293E-013
 0.917120E-013
 0.916945E-013
 0.916767E-013
 0.916587E-013
 0.916405E-013
 0.916222E-013
 0.916037E-013
 0.915850E-013
 0.915662E-013
 0.915472E-013
 0.915281E-013
 0.915089E-013
 0.914896E-013
 0.914701E-013
 0.914506E-013
 0.914310E-013
 0.914113E-013
 0.913915E-013
 0.913716E-013
 0.913517E-013
 0.913317E-013
 0.913116E-013
 0.912915E-013
 0.912712E-013
 0.912512E-013
 0.912294E-013
 0.912162E-013
 0.911667E-013
 0.912454E-013
 0.909491E-013
 0.915332E-013
 0.915732E-013
 0.908285E-013
 0.911668E-013
 0.910348E-013
 0.910653E-013
 0.910498E-013
 0.910453E-013
 0.910385E-013
 0.910322E-013
 0.910258E-013
 0.910195E-013
 0.910132E-013
 0.910069E-013
 0.910006E-013
 0.909944E-013
 0.909881E-013
 0.909819E-013
 0.909758E-013
 0.909696E-013
 0.909635E-013
 0.909575E-013
 0.909515E-013
 0.909455E-013
 0.909395E-013
 0.909336E-013
 0.909278E-013
 0.909220E-013
 0.909163E-013
 0.909106E-013
 0.909050E-013
 0.908994E-013
 0.908940E-013
 0.908886E-013
 0.908833E-013
 0.908781E-013
 0.908730E-013
 0.908680E-013
 0.908631E-013
 0.908583E-013
 0.908536E-013
 0.908490E-013
 0.908446E-013
 0.908403E-013
 0.908362E-013
 0.908322E-013
 0.908284E-013
 0.908247E-013
 0.908212E-013
 0.908178E-013
 0.908147E-013
 0.908117E-013
 0.908089E-013
 0.908063E-013
 0.908039E-013
 0.908018E-013
 0.907998E-013
 0.907980E-013
 0.907964E-013
 0.907951E-013
 0.907940E-013
 0.907931E-013
 0.907924E-013
 0.907919E-013
 0.907917E-013
 0.907917E-013
 0.907919E-013
 0.907924E-013
 0.907931E-013
 0.907940E-013
 0.907951E-013
 0.907964E-013
 0.907980E-013
 0.907998E-013
 0.908018E-013
 0.908040E-013
 0.908063E-013
 0.908089E-013
 0.908117E-013
 0.908147E-013
 0.908179E-013
 0.908212E-013
 0.908247E-013
 0.908284E-013
 0.908322E-013
 0.908362E-013
 0.908403E-013
 0.908446E-013
 0.908491E-013
 0.908536E-013
 0.908583E-013
 0.908631E-013
 0.908680E-013
 0.908730E-013
 0.908781E-013
 0.908833E-013
 0.908886E-013
 0.908940E-013
 0.908994E-013
 0.909050E-013
 0.909106E-013
 0.909163E-013
 0.909220E-013
 0.909278E-013
 0.909336E-013
 0.909395E-013
 0.909455E-013
 0.909515E-013
 0.909575E-013
 0.909636E-013
 0.909697E-013
 0.909758E-013
 0.909820E-013
 0.909882E-013
 0.909944E-013
 0.910006E-013
 0.910069E-013
 0.910132E-013
 0.910195E-013
 0.910258E-013
 0.910322E-013
 0.910385E-013
 0.910453E-013
 0.910498E-013
 0.910654E-013
 0.910348E-013
 0.911667E-013
 0.908285E-013
 0.915731E-013
 0.916807E-013
 0.907981E-013
 0.912162E-013
 0.910653E-013
 0.911122E-013
 0.911027E-013
 0.911067E-013
 0.911080E-013
 0.911097E-013
 0.911113E-013
 0.911130E-013
 0.911146E-013
 0.911162E-013
 0.911179E-013
 0.911195E-013
 0.911211E-013
 0.911227E-013
 0.911243E-013
 0.911259E-013
 0.911275E-013
 0.911290E-013
 0.911306E-013
 0.911321E-013
 0.911337E-013
 0.911352E-013
 0.911367E-013
 0.911382E-013
 0.911397E-013
 0.911412E-013
 0.911426E-013
 0.911441E-013
 0.911455E-013
 0.911469E-013
 0.911483E-013
 0.911496E-013
 0.911509E-013
 0.911522E-013
 0.911535E-013
 0.911548E-013
 0.911560E-013
 0.911572E-013
 0.911583E-013
 0.911594E-013
 0.911605E-013
 0.911615E-013
 0.911625E-013
 0.911635E-013
 0.911644E-013
 0.911653E-013
 0.911661E-013
 0.911669E-013
 0.911676E-013
 0.911683E-013
 0.911689E-013
 0.911695E-013
 0.911700E-013
 0.911704E-013
 0.911708E-013
 0.911712E-013
 0.911715E-013
 0.911717E-013
 0.911719E-013
 0.911720E-013
 0.911721E-013
 0.911721E-013
 0.911720E-013
 0.911719E-013
 0.911717E-013
 0.911715E-013
 0.911712E-013
 0.911708E-013
 0.911704E-013
 0.911700E-013
 0.911695E-013
 0.911689E-013
 0.911683E-013
 0.911676E-013
 0.911669E-013
 0.911661E-013
 0.911653E-013
 0.911644E-013
 0.911635E-013
 0.911625E-013
 0.911615E-013
 0.911605E-013
 0.911594E-013
 0.911583E-013
 0.911572E-013
 0.911560E-013
 0.911548E-013
 0.911535E-013
 0.911522E-013
 0.911509E-013
 0.911496E-013
 0.911483E-013
 0.911469E-013
 0.911455E-013
 0.911441E-013
 0.911426E-013
 0.911412E-013
 0.911397E-013
 0.911382E-013
 0.911367E-013
 0.911352E-013
 0.911337E-013
 0.911321E-013
 0.911306E-013
 0.911290E-013
 0.911275E-013
 0.911259E-013
 0.911243E-013
 0.911227E-013
 0.911211E-013
 0.911195E-013
 0.911179E-013
 0.911162E-013
 0.911146E-013
 0.911130E-013
 0.911113E-013
 0.911097E-013
 0.911080E-013
 0.911067E-013
 0.911027E-013
 0.911122E-013
 0.910654E-013
 0.912162E-013
 0.907981E-013
 0.916807E-013
 0.917703E-013
 0.907425E-013
 0.912294E-013
 0.910498E-013
 0.911027E-013
 0.910891E-013
 0.910916E-013
 0.910907E-013
 0.910904E-013
 0.910900E-013
 0.910897E-013
 0.910893E-013
 0.910889E-013
 0.910886E-013
 0.910882E-013
 0.910879E-013
 0.910875E-013
 0.910872E-013
 0.910868E-013
 0.910865E-013
 0.910861E-013
 0.910858E-013
 0.910855E-013
 0.910851E-013
 0.910848E-013
 0.910845E-013
 0.910841E-013
 0.910838E-013
 0.910835E-013
 0.910832E-013
 0.910829E-013
 0.910826E-013
 0.910823E-013
 0.910820E-013
 0.910817E-013
 0.910814E-013
 0.910811E-013
 0.910808E-013
 0.910806E-013
 0.910803E-013
 0.910800E-013
 0.910798E-013
 0.910796E-013
 0.910793E-013
 0.910791E-013
 0.910789E-013
 0.910787E-013
 0.910785E-013
 0.910783E-013
 0.910781E-013
 0.910780E-013
 0.910778E-013
 0.910777E-013
 0.910776E-013
 0.910774E-013
 0.910773E-013
 0.910772E-013
 0.910771E-013
 0.910771E-013
 0.910770E-013
 0.910770E-013
 0.910769E-013
 0.910769E-013
 0.910769E-013
 0.910769E-013
 0.910769E-013
 0.910769E-013
 0.910770E-013
 0.910770E-013
 0.910771E-013
 0.910771E-013
 0.910772E-013
 0.910773E-013
 0.910774E-013
 0.910776E-013
 0.910777E-013
 0.910778E-013
 0.910780E-013
 0.910781E-013
 0.910783E-013
 0.910785E-013
 0.910787E-013
 0.910789E-013
 0.910791E-013
 0.910793E-013
 0.910796E-013
 0.910798E-013
 0.910800E-013
 0.910803E-013
 0.910806E-013
 0.910808E-013
 0.910811E-013
 0.910814E-013
 0.910817E-013
 0.910820E-013
 0.910823E-013
 0.910826E-013
 0.910829E-013
 0.910832E-013
 0.910835E-013
 0.910838E-013
 0.910841E-013
 0.910845E-013
 0.910848E-013
 0.910851E-013
 0.910855E-013
 0.910858E-013
 0.910861E-013
 0.910865E-013
 0.910868E-013
 0.910872E-013
 0.910875E-013
 0.910879E-013
 0.910882E-013
 0.910886E-013
 0.910889E-013
 0.910893E-013
 0.910897E-013
 0.910900E-013
 0.910904E-013
 0.910907E-013
 0.910916E-013
 0.910891E-013
 0.911027E-013
 0.910498E-013
 0.912294E-013
 0.907425E-013
 0.917703E-013
 0.918636E-013
 0.906930E-013
 0.912513E-013
 0.910453E-013
 0.911067E-013
 0.910916E-013
 0.910949E-013
 0.910943E-013
 0.910945E-013
 0.910946E-013
 0.910946E-013
 0.910947E-013
 0.910948E-013
 0.910948E-013
 0.910949E-013
 0.910950E-013
 0.910950E-013
 0.910951E-013
 0.910952E-013
 0.910952E-013
 0.910953E-013
 0.910954E-013
 0.910954E-013
 0.910955E-013
 0.910956E-013
 0.910956E-013
 0.910957E-013
 0.910957E-013
 0.910958E-013
 0.910959E-013
 0.910959E-013
 0.910960E-013
 0.910961E-013
 0.910961E-013
 0.910962E-013
 0.910962E-013
 0.910963E-013
 0.910963E-013
 0.910964E-013
 0.910965E-013
 0.910965E-013
 0.910966E-013
 0.910966E-013
 0.910967E-013
 0.910967E-013
 0.910968E-013
 0.910968E-013
 0.910969E-013
 0.910969E-013
 0.910969E-013
 0.910970E-013
 0.910970E-013
 0.910970E-013
 0.910971E-013
 0.910971E-013
 0.910971E-013
 0.910971E-013
 0.910972E-013
 0.910972E-013
 0.910972E-013
 0.910972E-013
 0.910972E-013
 0.910972E-013
 0.910972E-013
 0.910972E-013
 0.910972E-013
 0.910972E-013
 0.910972E-013
 0.910972E-013
 0.910972E-013
 0.910972E-013
 0.910971E-013
 0.910971E-013
 0.910971E-013
 0.910971E-013
 0.910970E-013
 0.910970E-013
 0.910970E-013
 0.910969E-013
 0.910969E-013
 0.910969E-013
 0.910968E-013
 0.910968E-013
 0.910967E-013
 0.910967E-013
 0.910966E-013
 0.910966E-013
 0.910965E-013
 0.910965E-013
 0.910964E-013
 0.910964E-013
 0.910963E-013
 0.910962E-013
 0.910962E-013
 0.910961E-013
 0.910961E-013
 0.910960E-013
 0.910959E-013
 0.910959E-013
 0.910958E-013
 0.910957E-013
 0.910957E-013
 0.910956E-013
 0.910956E-013
 0.910955E-013
 0.910954E-013
 0.910954E-013
 0.910953E-013
 0.910952E-013
 0.910952E-013
 0.910951E-013
 0.910950E-013
 0.910950E-013
 0.910949E-013
 0.910948E-013
 0.910948E-013
 0.910947E-013
 0.910946E-013
 0.910946E-013
 0.910945E-013
 0.910943E-013
 0.910949E-013
 0.910916E-013
 0.911067E-013
 0.910453E-013
 0.912512E-013
 0.906930E-013
 0.918636E-013
 0.919559E-013
 0.906425E-013
 0.912712E-013
 0.910385E-013
 0.911080E-013
 0.910907E-013
 0.910943E-013
 0.910936E-013
 0.910937E-013
 0.910937E-013
 0.910937E-013
 0.910937E-013
 0.910937E-013
 0.910937E-013
 0.910937E-013
 0.910936E-013
 0.910936E-013
 0.910936E-013
 0.910936E-013
 0.910936E-013
 0.910936E-013
 0.910936E-013
 0.910936E-013
 0.910936E-013
 0.910936E-013
 0.910935E-013
 0.910935E-013
 0.910935E-013
 0.910935E-013
 0.910935E-013
 0.910935E-013
 0.910935E-013
 0.910935E-013
 0.910935E-013
 0.910935E-013
 0.910935E-013
 0.910935E-013
 0.910935E-013
 0.910935E-013
 0.910935E-013
 0.910935E-013
 0.910935E-013
 0.910935E-013
 0.910935E-013
 0.910935E-013
 0.910935E-013
 0.910935E-013
 0.910935E-013
 0.910935E-013
 0.910935E-013
 0.910935E-013
 0.910935E-013
 0.910935E-013
 0.910935E-013
 0.910935E-013
 0.910935E-013
 0.910935E-013
 0.910935E-013
 0.910935E-013
 0.910935E-013
 0.910935E-013
 0.910935E-013
 0.910935E-013
 0.910935E-013
 0.910935E-013
 0.910935E-013
 0.910935E-013
 0.910935E-013
 0.910935E-013
 0.910935E-013
 0.910935E-013
 0.910935E-013
 0.910935E-013
 0.910935E-013
 0.910935E-013
 0.910935E-013
 0.910935E-013
 0.910935E-013
 0.910935E-013
 0.910935E-013
 0.910935E-013
 0.910935E-013
 0.910935E-013
 0.910935E-013
 0.910935E-013
 0.910935E-013
 0.910935E-013
 0.910935E-013
 0.910935E-013
 0.910935E-013
 0.910935E-013
 0.910935E-013
 0.910935E-013
 0.910935E-013
 0.910935E-013
 0.910935E-013
 0.910935E-013
 0.910935E-013
 0.910935E-013
 0.910935E-013
 0.910935E-013
 0.910935E-013
 0.910936E-013
 0.910936E-013
 0.910936E-013
 0.910936E-013
 0.910936E-013
 0.910936E-013
 0.910936E-013
 0.910936E-013
 0.910936E-013
 0.910936E-013
 0.910936E-013
 0.910937E-013
 0.910937E-013
 0.910937E-013
 0.910937E-013
 0.910937E-013
 0.910937E-013
 0.910937E-013
 0.910936E-013
 0.910943E-013
 0.910907E-013
 0.911080E-013
 0.910385E-013
 0.912712E-013
 0.906425E-013
 0.919559E-013
 0.920480E-013
 0.905923E-013
 0.912915E-013
 0.910322E-013
 0.911097E-013
 0.910904E-013
 0.910945E-013
 0.910937E-013
 0.910939E-013
 0.910938E-013
 0.910939E-013
 0.910939E-013
 0.910939E-013
 0.910939E-013
 0.910939E-013
 0.910939E-013
 0.910939E-013
 0.910939E-013
 0.910939E-013
 0.910939E-013
 0.910939E-013
 0.910939E-013
 0.910939E-013
 0.910939E-013
 0.910939E-013
 0.910939E-013
 0.910939E-013
 0.910939E-013
 0.910939E-013
 0.910939E-013
 0.910939E-013
 0.910939E-013
 0.910939E-013
 0.910939E-013
 0.910939E-013
 0.910939E-013
 0.910940E-013
 0.910940E-013
 0.910940E-013
 0.910940E-013
 0.910940E-013
 0.910940E-013
 0.910940E-013
 0.910940E-013
 0.910940E-013
 0.910940E-013
 0.910940E-013
 0.910940E-013
 0.910941E-013
 0.910941E-013
 0.910941E-013
 0.910941E-013
 0.910941E-013
 0.910941E-013
 0.910941E-013
 0.910941E-013
 0.910941E-013
 0.910941E-013
 0.910941E-013
 0.910941E-013
 0.910941E-013
 0.910941E-013
 0.910941E-013
 0.910941E-013
 0.910941E-013
 0.910941E-013
 0.910941E-013
 0.910941E-013
 0.910941E-013
 0.910941E-013
 0.910941E-013
 0.910941E-013
 0.910941E-013
 0.910941E-013
 0.910941E-013
 0.910941E-013
 0.910941E-013
 0.910941E-013
 0.910941E-013
 0.910941E-013
 0.910940E-013
 0.910940E-013
 0.910940E-013
 0.910940E-013
 0.910940E-013
 0.910940E-013
 0.910940E-013
 0.910940E-013
 0.910940E-013
 0.910940E-013
 0.910940E-013
 0.910940E-013
 0.910939E-013
 0.910939E-013
 0.910939E-013
 0.910939E-013
 0.910939E-013
 0.910939E-013
 0.910939E-013
 0.910939E-013
 0.910939E-013
 0.910939E-013
 0.910939E-013
 0.910939E-013
 0.910939E-013
 0.910939E-013
 0.910939E-013
 0.910939E-013
 0.910939E-013
 0.910939E-013
 0.910939E-013
 0.910939E-013
 0.910939E-013
 0.910939E-013
 0.910939E-013
 0.910939E-013
 0.910939E-013
 0.910939E-013
 0.910938E-013
 0.910939E-013
 0.910937E-013
 0.910945E-013
 0.910904E-013
 0.911097E-013
 0.910322E-013
 0.912915E-013
 0.905923E-013
 0.920480E-013
 0.921399E-013
 0.905422E-013
 0.913116E-013
 0.910258E-013
 0.911113E-013
 0.910900E-013
 0.910946E-013
 0.910937E-013
 0.910938E-013
 0.910938E-013
 0.910938E-013
 0.910938E-013
 0.910938E-013
 0.910938E-013
 0.910938E-013
 0.910938E-013
 0.910938E-013
 0.910938E-013
 0.910938E-013
 0.910938E-013
 0.910938E-013
 0.910938E-013
 0.910938E-013
 0.910938E-013
 0.910938E-013
 0.910938E-013
 0.910938E-013
 0.910939E-013
 0.910939E-013
 0.910939E-013
 0.910939E-013
 0.910939E-013
 0.910939E-013
 0.910939E-013
 0.910939E-013
 0.910939E-013
 0.910939E-013
 0.910939E-013
 0.910939E-013
 0.910939E-013
 0.910939E-013
 0.910939E-013
 0.910939E-013
 0.910940E-013
 0.910940E-013
 0.910940E-013
 0.910940E-013
 0.910940E-013
 0.910940E-013
 0.910940E-013
 0.910940E-013
 0.910940E-013
 0.910940E-013
 0.910940E-013
 0.910941E-013
 0.910941E-013
 0.910941E-013
 0.910941E-013
 0.910941E-013
 0.910941E-013
 0.910941E-013
 0.910941E-013
 0.910941E-013
 0.910941E-013
 0.910941E-013
 0.910941E-013
 0.910941E-013
 0.910941E-013
 0.910941E-013
 0.910941E-013
 0.910941E-013
 0.910941E-013
 0.910941E-013
 0.910941E-013
 0.910940E-013
 0.910940E-013
 0.910940E-013
 0.910940E-013
 0.910940E-013
 0.910940E-013
 0.910940E-013
 0.910940E-013
 0.910940E-013
 0.910940E-013
 0.910940E-013
 0.910939E-013
 0.910939E-013
 0.910939E-013
 0.910939E-013
 0.910939E-013
 0.910939E-013
 0.910939E-013
 0.910939E-013
 0.910939E-013
 0.910939E-013
 0.910939E-013
 0.910939E-013
 0.910939E-013
 0.910939E-013
 0.910939E-013
 0.910939E-013
 0.910939E-013
 0.910938E-013
 0.910938E-013
 0.910938E-013
 0.910938E-013
 0.910938E-013
 0.910938E-013
 0.910938E-013
 0.910938E-013
 0.910938E-013
 0.910938E-013
 0.910938E-013
 0.910938E-013
 0.910938E-013
 0.910938E-013
 0.910938E-013
 0.910938E-013
 0.910938E-013
 0.910938E-013
 0.910937E-013
 0.910946E-013
 0.910900E-013
 0.911113E-013
 0.910259E-013
 0.913116E-013
 0.905423E-013
 0.921399E-013
 0.922315E-013
 0.904923E-013
 0.913317E-013
 0.910195E-013
 0.911130E-013
 0.910897E-013
 0.910946E-013
 0.910937E-013
 0.910939E-013
 0.910938E-013
 0.910938E-013
 0.910938E-013
 0.910938E-013
 0.910938E-013
 0.910938E-013
 0.910938E-013
 0.910938E-013
 0.910938E-013
 0.910938E-013
 0.910938E-013
 0.910938E-013
 0.910938E-013
 0.910938E-013
 0.910939E-013
 0.910939E-013
 0.910939E-013
 0.910939E-013
 0.910939E-013
 0.910939E-013
 0.910939E-013
 0.910939E-013
 0.910939E-013
 0.910939E-013
 0.910939E-013
 0.910939E-013
 0.910939E-013
 0.910939E-013
 0.910939E-013
 0.910939E-013
 0.910940E-013
 0.910940E-013
 0.910940E-013
 0.910940E-013
 0.910940E-013
 0.910940E-013
 0.910940E-013
 0.910940E-013
 0.910940E-013
 0.910940E-013