# vtk DataFile Version 3.0
Solution data
ASCII
DATASET STRUCTURED_GRID
DIMENSIONS 128 128 1
POINTS 16384  double
      0.000004      0.000004      0.000000
      0.000012      0.000004      0.000000
      0.000020      0.000004      0.000000
      0.000027      0.000004      0.000000
      0.000035      0.000004      0.000000
      0.000043      0.000004      0.000000
      0.000051      0.000004      0.000000
      0.000059      0.000004      0.000000
      0.000066      0.000004      0.000000
      0.000074      0.000004      0.000000
      0.000082      0.000004      0.000000
      0.000090      0.000004      0.000000
      0.000098      0.000004      0.000000
      0.000105      0.000004      0.000000
      0.000113      0.000004      0.000000
      0.000121      0.000004      0.000000
      0.000129      0.000004      0.000000
      0.000137      0.000004      0.000000
      0.000145      0.000004      0.000000
      0.000152      0.000004      0.000000
      0.000160      0.000004      0.000000
      0.000168      0.000004      0.000000
      0.000176      0.000004      0.000000
      0.000184      0.000004      0.000000
      0.000191      0.000004      0.000000
      0.000199      0.000004      0.000000
      0.000207      0.000004      0.000000
      0.000215      0.000004      0.000000
      0.000223      0.000004      0.000000
      0.000230      0.000004      0.000000
      0.000238      0.000004      0.000000
      0.000246      0.000004      0.000000
      0.000254      0.000004      0.000000
      0.000262      0.000004      0.000000
      0.000270      0.000004      0.000000
      0.000277      0.000004      0.000000
      0.000285      0.000004      0.000000
      0.000293      0.000004      0.000000
      0.000301      0.000004      0.000000
      0.000309      0.000004      0.000000
      0.000316      0.000004      0.000000
      0.000324      0.000004      0.000000
      0.000332      0.000004      0.000000
      0.000340      0.000004      0.000000
      0.000348      0.000004      0.000000
      0.000355      0.000004      0.000000
      0.000363      0.000004      0.000000
      0.000371      0.000004      0.000000
      0.000379      0.000004      0.000000
      0.000387      0.000004      0.000000
      0.000395      0.000004      0.000000
      0.000402      0.000004      0.000000
      0.000410      0.000004      0.000000
      0.000418      0.000004      0.000000
      0.000426      0.000004      0.000000
      0.000434      0.000004      0.000000
      0.000441      0.000004      0.000000
      0.000449      0.000004      0.000000
      0.000457      0.000004      0.000000
      0.000465      0.000004      0.000000
      0.000473      0.000004      0.000000
      0.000480      0.000004      0.000000
      0.000488      0.000004      0.000000
      0.000496      0.000004      0.000000
      0.000504      0.000004      0.000000
      0.000512      0.000004      0.000000
      0.000520      0.000004      0.000000
      0.000527      0.000004      0.000000
      0.000535      0.000004      0.000000
      0.000543      0.000004      0.000000
      0.000551      0.000004      0.000000
      0.000559      0.000004      0.000000
      0.000566      0.000004      0.000000
      0.000574      0.000004      0.000000
      0.000582      0.000004      0.000000
      0.000590      0.000004      0.000000
      0.000598      0.000004      0.000000
      0.000605      0.000004      0.000000
      0.000613      0.000004      0.000000
      0.000621      0.000004      0.000000
      0.000629      0.000004      0.000000
      0.000637      0.000004      0.000000
      0.000645      0.000004      0.000000
      0.000652      0.000004      0.000000
      0.000660      0.000004      0.000000
      0.000668      0.000004      0.000000
      0.000676      0.000004      0.000000
      0.000684      0.000004      0.000000
      0.000691      0.000004      0.000000
      0.000699      0.000004      0.000000
      0.000707      0.000004      0.000000
      0.000715      0.000004      0.000000
      0.000723      0.000004      0.000000
      0.000730      0.000004      0.000000
      0.000738      0.000004      0.000000
      0.000746      0.000004      0.000000
      0.000754      0.000004      0.000000
      0.000762      0.000004      0.000000
      0.000770      0.000004      0.000000
      0.000777      0.000004      0.000000
      0.000785      0.000004      0.000000
      0.000793      0.000004      0.000000
      0.000801      0.000004      0.000000
      0.000809      0.000004      0.000000
      0.000816      0.000004      0.000000
      0.000824      0.000004      0.000000
      0.000832      0.000004      0.000000
      0.000840      0.000004      0.000000
      0.000848      0.000004      0.000000
      0.000855      0.000004      0.000000
      0.000863      0.000004      0.000000
      0.000871      0.000004      0.000000
      0.000879      0.000004      0.000000
      0.000887      0.000004      0.000000
      0.000895      0.000004      0.000000
      0.000902      0.000004      0.000000
      0.000910      0.000004      0.000000
      0.000918      0.000004      0.000000
      0.000926      0.000004      0.000000
      0.000934      0.000004      0.000000
      0.000941      0.000004      0.000000
      0.000949      0.000004      0.000000
      0.000957      0.000004      0.000000
      0.000965      0.000004      0.000000
      0.000973      0.000004      0.000000
      0.000980      0.000004      0.000000
      0.000988      0.000004      0.000000
      0.000996      0.000004      0.000000
      0.000004      0.000012      0.000000
      0.000012      0.000012      0.000000
      0.000020      0.000012      0.000000
      0.000027      0.000012      0.000000
      0.000035      0.000012      0.000000
      0.000043      0.000012      0.000000
      0.000051      0.000012      0.000000
      0.000059      0.000012      0.000000
      0.000066      0.000012      0.000000
      0.000074      0.000012      0.000000
      0.000082      0.000012      0.000000
      0.000090      0.000012      0.000000
      0.000098      0.000012      0.000000
      0.000105      0.000012      0.000000
      0.000113      0.000012      0.000000
      0.000121      0.000012      0.000000
      0.000129      0.000012      0.000000
      0.000137      0.000012      0.000000
      0.000145      0.000012      0.000000
      0.000152      0.000012      0.000000
      0.000160      0.000012      0.000000
      0.000168      0.000012      0.000000
      0.000176      0.000012      0.000000
      0.000184      0.000012      0.000000
      0.000191      0.000012      0.000000
      0.000199      0.000012      0.000000
      0.000207      0.000012      0.000000
      0.000215      0.000012      0.000000
      0.000223      0.000012      0.000000
      0.000230      0.000012      0.000000
      0.000238      0.000012      0.000000
      0.000246      0.000012      0.000000
      0.000254      0.000012      0.000000
      0.000262      0.000012      0.000000
      0.000270      0.000012      0.000000
      0.000277      0.000012      0.000000
      0.000285      0.000012      0.000000
      0.000293      0.000012      0.000000
      0.000301      0.000012      0.000000
      0.000309      0.000012      0.000000
      0.000316      0.000012      0.000000
      0.000324      0.000012      0.000000
      0.000332      0.000012      0.000000
      0.000340      0.000012      0.000000
      0.000348      0.000012      0.000000
      0.000355      0.000012      0.000000
      0.000363      0.000012      0.000000
      0.000371      0.000012      0.000000
      0.000379      0.000012      0.000000
      0.000387      0.000012      0.000000
      0.000395      0.000012      0.000000
      0.000402      0.000012      0.000000
      0.000410      0.000012      0.000000
      0.000418      0.000012      0.000000
      0.000426      0.000012      0.000000
      0.000434      0.000012      0.000000
      0.000441      0.000012      0.000000
      0.000449      0.000012      0.000000
      0.000457      0.000012      0.000000
      0.000465      0.000012      0.000000
      0.000473      0.000012      0.000000
      0.000480      0.000012      0.000000
      0.000488      0.000012      0.000000
      0.000496      0.000012      0.000000
      0.000504      0.000012      0.000000
      0.000512      0.000012      0.000000
      0.000520      0.000012      0.000000
      0.000527      0.000012      0.000000
      0.000535      0.000012      0.000000
      0.000543      0.000012      0.000000
      0.000551      0.000012      0.000000
      0.000559      0.000012      0.000000
      0.000566      0.000012      0.000000
      0.000574      0.000012      0.000000
      0.000582      0.000012      0.000000
      0.000590      0.000012      0.000000
      0.000598      0.000012      0.000000
      0.000605      0.000012      0.000000
      0.000613      0.000012      0.000000
      0.000621      0.000012      0.000000
      0.000629      0.000012      0.000000
      0.000637      0.000012      0.000000
      0.000645      0.000012      0.000000
      0.000652      0.000012      0.000000
      0.000660      0.000012      0.000000
      0.000668      0.000012      0.000000
      0.000676      0.000012      0.000000
      0.000684      0.000012      0.000000
      0.000691      0.000012      0.000000
      0.000699      0.000012      0.000000
      0.000707      0.000012      0.000000
      0.000715      0.000012      0.000000
      0.000723      0.000012      0.000000
      0.000730      0.000012      0.000000
      0.000738      0.000012      0.000000
      0.000746      0.000012      0.000000
      0.000754      0.000012      0.000000
      0.000762      0.000012      0.000000
      0.000770      0.000012      0.000000
      0.000777      0.000012      0.000000
      0.000785      0.000012      0.000000
[...]
POINT_DATA 16384
SCALARS rhoe double
LOOKUP_TABLE default
 0.916572E-013
 0.912263E-013
 0.915481E-013
 0.915365E-013
 0.916517E-013
 0.917247E-013
 0.918096E-013
 0.918912E-013
 0.919733E-013
 0.920550E-013
 0.921364E-013
 0.922176E-013
 0.922985E-013
 0.923791E-013
 0.924594E-013
 0.925393E-013
 0.926189E-013
 0.926981E-013
 0.927769E-013
 0.928553E-013
 0.929332E-013
 0.930106E-013
 0.930874E-013
 0.931637E-013
 0.932394E-013
 0.933144E-013
 0.933886E-013
 0.934622E-013
 0.935349E-013
 0.936068E-013
 0.936777E-013
 0.937477E-013
 0.938166E-013
 0.938845E-013
 0.939511E-013
 0.940165E-013
 0.940806E-013
 0.941433E-013
 0.942046E-013
 0.942643E-013
 0.943225E-013
 0.943789E-013
 0.944336E-013
 0.944865E-013
 0.945374E-013
 0.945863E-013
 0.946332E-013
 0.946780E-013
 0.947205E-013
 0.947608E-013
 0.947987E-013
 0.948342E-013
 0.948673E-013
 0.948978E-013
 0.949257E-013
 0.949510E-013
 0.949735E-013
 0.949934E-013
 0.950105E-013
 0.950248E-013
 0.950363E-013
 0.950449E-013
 0.950507E-013
 0.950535E-013
 0.950535E-013
 0.950507E-013
 0.950449E-013
 0.950363E-013
 0.950248E-013
 0.950105E-013
 0.949934E-013
 0.949736E-013
 0.949510E-013
 0.949257E-013
 0.948978E-013
 0.948673E-013
 0.948342E-013
 0.947987E-013
 0.947608E-013
 0.947206E-013
 0.946780E-013
 0.946333E-013
 0.945864E-013
 0.945374E-013
 0.944865E-013
 0.944336E-013
 0.943789E-013
 0.943225E-013
 0.942644E-013
 0.942046E-013
 0.941434E-013
 0.940807E-013
 0.940166E-013
 0.939511E-013
 0.938845E-013
 0.938167E-013
 0.937477E-013
 0.936778E-013
 0.936068E-013
 0.935350E-013
 0.934622E-013
 0.933887E-013
 0.933144E-013
 0.932394E-013
 0.931637E-013
 0.930874E-013
 0.930106E-013
 0.929332E-013
 0.928553E-013
 0.927769E-013
 0.926981E-013
 0.926189E-013
 0.925394E-013
 0.924594E-013
 0.923791E-013
 0.922985E-013
 0.922176E-013
 0.921365E-013
 0.920550E-013
 0.919733E-013
 0.918912E-013
 0.918097E-013
 0.917247E-013
 0.916517E-013
 0.915365E-013
 0.915481E-013
 0.912263E-013
 0.916571E-013
 0.912263E-013
 0.907652E-013
 0.909423E-013
 0.907827E-013
 0.907684E-013
 0.907018E-013
 0.906515E-013
 0.905970E-013
 0.905437E-013
 0.904903E-013
 0.904371E-013
 0.903842E-013
 0.903314E-013
 0.902788E-013
 0.902264E-013
 0.901742E-013
 0.901223E-013
 0.900706E-013
 0.900192E-013
 0.899680E-013
 0.899172E-013
 0.898667E-013
 0.898165E-013
 0.897667E-013
 0.897173E-013
 0.896683E-013
 0.896198E-013
 0.895717E-013
 0.895242E-013
 0.894773E-013
 0.894309E-013
 0.893852E-013
 0.893402E-013
 0.892958E-013
 0.892523E-013
 0.892095E-013
 0.891676E-013
 0.891266E-013
 0.890865E-013
 0.890474E-013
 0.890094E-013
 0.889725E-013
 0.889367E-013
 0.889021E-013
 0.888688E-013
 0.888368E-013
 0.888061E-013
 0.887768E-013
 0.887489E-013
 0.887226E-013
 0.886977E-013
 0.886745E-013
 0.886529E-013
 0.886329E-013
 0.886146E-013
 0.885980E-013
 0.885832E-013
 0.885702E-013
 0.885590E-013
 0.885497E-013
 0.885422E-013
 0.885365E-013
 0.885327E-013
 0.885308E-013
 0.885308E-013
 0.885327E-013
 0.885365E-013
 0.885422E-013
 0.885497E-013
 0.885590E-013
 0.885702E-013
 0.885833E-013
 0.885981E-013
 0.886146E-013
 0.886329E-013
 0.886529E-013
 0.886745E-013
 0.886978E-013
 0.887226E-013
 0.887489E-013
 0.887768E-013
 0.888061E-013
 0.888368E-013
 0.888688E-013
 0.889022E-013
 0.889367E-013
 0.889725E-013
 0.890094E-013
 0.890475E-013
 0.890865E-013
 0.891266E-013
 0.891676E-013
 0.892095E-013
 0.892523E-013
 0.892959E-013
 0.893402E-013
 0.893852E-013
 0.894310E-013
 0.894773E-013
 0.895243E-013
 0.895718E-013
 0.896198E-013
 0.896683E-013
 0.897173E-013
 0.897667E-013
 0.898165E-013
 0.898667E-013
 0.899172E-013
 0.899681E-013
 0.900192E-013
 0.900706E-013
 0.901223E-013
 0.901743E-013
 0.902264E-013
 0.902788E-013
 0.903314E-013
 0.903842E-013
 0.904372E-013
 0.904903E-013
 0.905437E-013
 0.905970E-013
 0.906515E-013
 0.907018E-013
 0.907684E-013
 0.907828E-013
 0.909423E-013
 0.907652E-013
 0.912263E-013
 0.915481E-013
 0.909423E-013
 0.913113E-013
 0.911866E-013
 0.912710E-013
 0.912801E-013
 0.913124E-013
 0.913384E-013
 0.913658E-013
 0.913928E-013
 0.914198E-013
 0.914467E-013
 0.914734E-013
 0.915001E-013
 0.915266E-013
 0.915530E-013
 0.915793E-013
 0.916055E-013
 0.916315E-013
 0.916574E-013
 0.916832E-013
 0.917088E-013
 0.917342E-013
 0.917594E-013
 0.917844E-013
 0.918092E-013
 0.918338E-013
 0.918581E-013
 0.918822E-013
 0.919059E-013
 0.919294E-013
 0.919526E-013
 0.919754E-013
 0.919978E-013
 0.920199E-013
 0.920416E-013
 0.920628E-013
 0.920835E-013
 0.921038E-013
 0.921236E-013
 0.921429E-013
 0.921616E-013
 0.921797E-013
 0.921972E-013
 0.922141E-013
 0.922303E-013
 0.922459E-013
 0.922607E-013
 0.922748E-013
 0.922882E-013
 0.923008E-013
 0.923126E-013
 0.923235E-013
 0.923336E-013
 0.923429E-013
 0.923513E-013
 0.923588E-013
 0.923654E-013
 0.923711E-013
 0.923758E-013
 0.923796E-013
 0.923825E-013
 0.923844E-013
 0.923853E-013
 0.923853E-013
 0.923844E-013
 0.923825E-013
 0.923796E-013
 0.923758E-013
 0.923710E-013
 0.923654E-013
 0.923588E-013
 0.923513E-013
 0.923429E-013
 0.923336E-013
 0.923235E-013
 0.923125E-013
 0.923008E-013
 0.922882E-013
 0.922748E-013
 0.922607E-013
 0.922459E-013
 0.922303E-013
 0.922141E-013
 0.921972E-013
 0.921797E-013
 0.921616E-013
 0.921429E-013
 0.921236E-013
 0.921038E-013
 0.920835E-013
 0.920627E-013
 0.920415E-013
 0.920199E-013
 0.919978E-013
 0.919753E-013
 0.919525E-013
 0.919294E-013
 0.919059E-013
 0.918821E-013
 0.918581E-013
 0.918338E-013
 0.918092E-013
 0.917844E-013
 0.917594E-013
 0.917342E-013
 0.917087E-013
 0.916832E-013
 0.916574E-013
 0.916315E-013
 0.916055E-013
 0.915793E-013
 0.915530E-013
 0.915266E-013
 0.915000E-013
 0.914734E-013
 0.914466E-013
 0.914198E-013
 0.913928E-013
 0.913658E-013
 0.913384E-013
 0.913124E-013
 0.912801E-013
 0.912710E-013
 0.911866E-013
 0.913112E-013
 0.909423E-013
 0.915481E-013
 0.915365E-013
 0.907827E-013
 0.911866E-013
 0.909865E-013
 0.910468E-013
 0.910125E-013
 0.910077E-013
 0.909950E-013
 0.909842E-013
 0.909730E-013
 0.909620E-013
 0.909510E-013
 0.909400E-013
 0.909291E-013
 0.909182E-013
 0.909073E-013
 0.908965E-013
 0.908858E-013
 0.908751E-013
 0.908645E-013
 0.908539E-013
 0.908434E-013
 0.908330E-013
 0.908226E-013
 0.908124E-013
 0.908022E-013
 0.907921E-013
 0.907821E-013
 0.907723E-013
 0.907625E-013
 0.907529E-013
 0.907434E-013
 0.907340E-013
 0.907248E-013
 0.907157E-013
 0.907068E-013
 0.906981E-013
 0.906896E-013
 0.906813E-013
 0.906732E-013
 0.906653E-013
 0.906576E-013
 0.906501E-013
 0.906429E-013
 0.906360E-013
 0.906294E-013
 0.906230E-013
 0.906169E-013
 0.906111E-013
 0.906056E-013
 0.906004E-013
 0.905956E-013
 0.905911E-013
 0.905870E-013
 0.905832E-013
 0.905797E-013
 0.905766E-013
 0.905739E-013
 0.905716E-013
 0.905696E-013
 0.905681E-013
 0.905669E-013
 0.905661E-013
 0.905657E-013
 0.905657E-013
 0.905661E-013
 0.905669E-013
 0.905681E-013
 0.905697E-013
 0.905716E-013
 0.905739E-013
 0.905766E-013
 0.905797E-013
 0.905832E-013
 0.905870E-013
 0.905911E-013
 0.905956E-013
 0.906005E-013
 0.906056E-013
 0.906111E-013
 0.906169E-013
 0.906230E-013
 0.906294E-013
 0.906360E-013
 0.906430E-013
 0.906502E-013
 0.906576E-013
 0.906653E-013
 0.906732E-013
 0.906813E-013
 0.906896E-013
 0.906982E-013
 0.907069E-013
 0.907158E-013
 0.907248E-013
 0.907340E-013
 0.907434E-013
 0.907529E-013
 0.907625E-013
 0.907723E-013
 0.907821E-013
 0.907921E-013
 0.908022E-013
 0.908124E-013
 0.908226E-013
 0.908330E-013
 0.908434E-013
 0.908539E-013
 0.908645E-013
 0.908751E-013
 0.908858E-013
 0.908965E-013
 0.909073E-013
 0.909182E-013
 0.909291E-013
 0.909400E-013
 0.909510E-013
 0.909620E-013
 0.909731E-013
 0.909842E-013
 0.909950E-013
 0.910078E-013
 0.910125E-013
 0.910468E-013
 0.909865E-013
 0.911866E-013
 0.907828E-013
 0.915365E-013
 0.916517E-013
 0.907684E-013
 0.912710E-013
 0.910468E-013
 0.911375E-013
 0.911132E-013
 0.911249E-013
 0.911268E-013
 0.911310E-013
 0.911348E-013
 0.911386E-013
 0.911423E-013
 0.911461E-013
 0.911499E-013
 0.911536E-013
 0.911573E-013
 0.911610E-013
 0.911647E-013
 0.911684E-013
 0.911720E-013
 0.911756E-013
 0.911792E-013
 0.911828E-013
 0.911863E-013
 0.911899E-013
 0.911933E-013
 0.911968E-013
 0.912002E-013
 0.912036E-013
 0.912069E-013
 0.912102E-013
 0.912135E-013
 0.912167E-013
 0.912199E-013
 0.912230E-013
 0.912260E-013
 0.912290E-013
 0.912319E-013
 0.912348E-013
 0.912376E-013
 0.912403E-013
 0.912429E-013
 0.912455E-013
 0.912479E-013
 0.912503E-013
 0.912526E-013
 0.912548E-013
 0.912569E-013
 0.912588E-013
 0.912607E-013
 0.912625E-013
 0.912642E-013
 0.912657E-013
 0.912671E-013
 0.912684E-013
 0.912696E-013
 0.912707E-013
 0.912716E-013
 0.912724E-013
 0.912731E-013
 0.912736E-013
 0.912740E-013
 0.912743E-013
 0.912744E-013
 0.912744E-013
 0.912743E-013
 0.912740E-013
 0.912736E-013
 0.912731E-013
 0.912724E-013
 0.912716E-013
 0.912707E-013
 0.912696E-013
 0.912684E-013
 0.912671E-013
 0.912657E-013
 0.912642E-013
 0.912625E-013
 0.912607E-013
 0.912588E-013
 0.912569E-013
 0.912548E-013
 0.912526E-013
 0.912503E-013
 0.912479E-013
 0.912455E-013
 0.912429E-013
 0.912403E-013
 0.912376E-013
 0.912348E-013
 0.912319E-013
 0.912290E-013
 0.912260E-013
 0.912230E-013
 0.912199E-013
 0.912167E-013
 0.912135E-013
 0.912102E-013
 0.912069E-013
 0.912036E-013
 0.912002E-013
 0.911968E-013
 0.911933E-013
 0.911898E-013
 0.911863E-013
 0.911828E-013
 0.911792E-013
 0.911756E-013
 0.911720E-013
 0.911684E-013
 0.911647E-013
 0.911610E-013
 0.911573E-013
 0.911536E-013
 0.911499E-013
 0.911461E-013
 0.911423E-013
 0.911386E-013
 0.911348E-013
 0.911310E-013
 0.911268E-013
 0.911249E-013
 0.911132E-013
 0.911375E-013
 0.910468E-013
 0.912710E-013
 0.907684E-013
 0.916517E-013
 0.917247E-013
 0.907018E-013
 0.912801E-013
 0.910125E-013
 0.911132E-013
 0.910790E-013
 0.910872E-013
 0.910837E-013
 0.910831E-013
 0.910819E-013
 0.910808E-013
 0.910797E-013
 0.910786E-013
 0.910775E-013
 0.910764E-013
 0.910753E-013
 0.910742E-013
 0.910732E-013
 0.910721E-013
 0.910710E-013
 0.910700E-013
 0.910689E-013
 0.910679E-013
 0.910668E-013
 0.910658E-013
 0.910648E-013
 0.910638E-013
 0.910628E-013
 0.910618E-013
 0.910608E-013
 0.910598E-013
 0.910589E-013
 0.910579E-013
 0.910570E-013
 0.910561E-013
 0.910552E-013
 0.910543E-013
 0.910535E-013
 0.910526E-013
 0.910518E-013
 0.910510E-013
 0.910503E-013
 0.910495E-013
 0.910488E-013
 0.910481E-013
 0.910474E-013
 0.910468E-013
 0.910462E-013
 0.910456E-013
 0.910451E-013
 0.910446E-013
 0.910441E-013
 0.910436E-013
 0.910432E-013
 0.910428E-013
 0.910425E-013
 0.910422E-013
 0.910419E-013
 0.910417E-013
 0.910415E-013
 0.910413E-013
 0.910412E-013
 0.910411E-013
 0.910411E-013
 0.910411E-013
 0.910411E-013
 0.910412E-013
 0.910413E-013
 0.910415E-013
 0.910417E-013
 0.910419E-013
 0.910422E-013
 0.910425E-013
 0.910428E-013
 0.910432E-013
 0.910436E-013
 0.910441E-013
 0.910446E-013
 0.910451E-013
 0.910456E-013
 0.910462E-013
 0.910468E-013
 0.910474E-013
 0.910481E-013
 0.910488E-013
 0.910495E-013
 0.910503E-013
 0.910510E-013
 0.910518E-013
 0.910526E-013
 0.910535E-013
 0.910543E-013
 0.910552E-013
 0.910561E-013
 0.910570E-013
 0.910579E-013
 0.910589E-013
 0.910598E-013
 0.910608E-013
 0.910618E-013
 0.910628E-013
 0.910638E-013
 0.910648E-013
 0.910658E-013
 0.910668E-013
 0.910679E-013
 0.910689E-013
 0.910700E-013
 0.910710E-013
 0.910721E-013
 0.910732E-013
 0.910742E-013
 0.910753E-013
 0.910764E-013
 0.910775E-013
 0.910786E-013
 0.910797E-013
 0.910808E-013
 0.910819E-013
 0.910831E-013
 0.910837E-013
 0.910872E-013
 0.910790E-013
 0.911132E-013
 0.910125E-013
 0.912801E-013
 0.907018E-013
 0.917247E-013
 0.918096E-013
 0.906515E-013
 0.913124E-013
 0.910077E-013
 0.911249E-013
 0.910872E-013
 0.910982E-013
 0.910958E-013
 0.910967E-013
 0.910968E-013
 0.910971E-013
 0.910974E-013
 0.910977E-013
 0.910980E-013
 0.910983E-013
 0.910986E-013
 0.910988E-013
 0.910991E-013
 0.910994E-013
 0.910997E-013
 0.910999E-013
 0.911002E-013
 0.911005E-013
 0.911007E-013
 0.911010E-013
 0.911013E-013
 0.911015E-013
 0.911018E-013
 0.911020E-013
 0.911023E-013
 0.911025E-013
 0.911028E-013
 0.911030E-013
 0.911033E-013
 0.911035E-013
 0.911037E-013
 0.911040E-013
 0.911042E-013
 0.911044E-013
 0.911046E-013
 0.911048E-013
 0.911050E-013
 0.911052E-013
 0.911054E-013
 0.911056E-013
 0.911058E-013
 0.911059E-013
 0.911061E-013
 0.911062E-013
 0.911064E-013
 0.911065E-013
 0.911067E-013
 0.911068E-013
 0.911069E-013
 0.911070E-013
 0.911071E-013
 0.911072E-013
 0.911072E-013
 0.911073E-013
 0.911073E-013
 0.911074E-013
 0.911074E-013
 0.911074E-013
 0.911074E-013
 0.911074E-013
 0.911074E-013
 0.911074E-013
 0.911074E-013
 0.911073E-013
 0.911073E-013
 0.911072E-013
 0.911072E-013
 0.911071E-013
 0.911070E-013
 0.911069E-013
 0.911068E-013
 0.911067E-013
 0.911065E-013
 0.911064E-013
 0.911062E-013
 0.911061E-013
 0.911059E-013
 0.911058E-013
 0.911056E-013
 0.911054E-013
 0.911052E-013
 0.911050E-013
 0.911048E-013
 0.911046E-013
 0.911044E-013
 0.911042E-013
 0.911040E-013
 0.911037E-013
 0.911035E-013
 0.911033E-013
 0.911030E-013
 0.911028E-013
 0.911025E-013
 0.911023E-013
 0.911020E-013
 0.911018E-013
 0.911015E-013
 0.911013E-013
 0.911010E-013
 0.911007E-013
 0.911005E-013
 0.911002E-013
 0.910999E-013
 0.910997E-013
 0.910994E-013
 0.910991E-013
 0.910988E-013
 0.910986E-013
 0.910983E-013
 0.910980E-013
 0.910977E-013
 0.910974E-013
 0.910971E-013
 0.910968E-013
 0.910967E-013
 0.910958E-013
 0.910982E-013
 0.910872E-013
 0.911249E-013
 0.910078E-013
 0.913124E-013
 0.906515E-013
 0.918097E-013
 0.918912E-013
 0.905970E-013
 0.913384E-013
 0.909950E-013
 0.911268E-013
 0.910837E-013
 0.910958E-013
 0.910927E-013
 0.910933E-013
 0.910931E-013
 0.910931E-013
 0.910930E-013
 0.910930E-013
 0.910929E-013
 0.910928E-013
 0.910928E-013
 0.910927E-013
 0.910926E-013
 0.910926E-013
 0.910925E-013
 0.910925E-013
 0.910924E-013
 0.910923E-013
 0.910923E-013
 0.910922E-013
 0.910922E-013
 0.910921E-013
 0.910921E-013
 0.910920E-013
 0.910919E-013
 0.910919E-013
 0.910918E-013
 0.910918E-013
 0.910917E-013
 0.910917E-013
 0.910916E-013
 0.910916E-013
 0.910916E-013
 0.910915E-013
 0.910915E-013
 0.910914E-013
 0.910914E-013
 0.910913E-013
 0.910913E-013
 0.910913E-013
 0.910912E-013
 0.910912E-013
 0.910912E-013
 0.910911E-013
 0.910911E-013
 0.910911E-013
 0.910911E-013
 0.910910E-013
 0.910910E-013
 0.910910E-013
 0.910910E-013
 0.910910E-013
 0.910910E-013
 0.910910E-013
 0.910909E-013
 0.910909E-013
 0.910909E-013
 0.910909E-013
 0.910909E-013
 0.910909E-013
 0.910909E-013
 0.910909E-013
 0.910909E-013
 0.910909E-013
 0.910910E-013
 0.910910E-013
 0.910910E-013
 0.910910E-013
 0.910910E-013
 0.910910E-013
 0.910910E-013
 0.910911E-013
 0.910911E-013
 0.910911E-013
 0.910911E-013
 0.910912E-013
 0.910912E-013
 0.910912E-013
 0.910913E-013
 0.910913E-013
 0.910913E-013
 0.910914E-013
 0.910914E-013
 0.910915E-013
 0.910915E-013
 0.910916E-013
 0.910916E-013
 0.910916E-013
 0.910917E-013
 0.910917E-013
 0.910918E-013
 0.910918E-013
 0.910919E-013
 0.910920E-013
 0.910920E-013
 0.910921E-013
 0.910921E-013
 0.910922E-013
 0.910922E-013
 0.910923E-013
 0.910923E-013
 0.910924E-013
 0.910925E-013
 0.910925E-013
 0.910926E-013
 0.910926E-013
 0.910927E-013
 0.910928E-013
 0.910928E-013
 0.910929E-013
 0.910930E-013
 0.910930E-013
 0.910931E-013
 0.910931E-013
 0.910933E-013
 0.910927E-013
 0.910958E-013
 0.910837E-013
 0.911268E-013
 0.909950E-013
 0.913384E-013
 0.905970E-013
 0.918912E-013
 0.919733E-013
 0.905437E-013
 0.913658E-013
 0.909842E-013
 0.911310E-013
 0.910831E-013
 0.910967E-013
 0.910933E-013
 0.910941E-013
 0.910940E-013
 0.910940E-013
 0.910940E-013
 0.910940E-013
 0.910940E-013
 0.910940E-013
 0.910941E-013
 0.910941E-013
 0.910941E-013
 0.910941E-013
 0.910941E-013
 0.910941E-013
 0.910941E-013
 0.910941E-013
 0.910942E-013
 0.910942E-013
 0.910942E-013
 0.910942E-013
 0.910942E-013
 0.910942E-013
 0.910942E-013
 0.910943E-013
 0.910943E-013
 0.910943E-013
 0.910943E-013
 0.910943E-013
 0.910943E-013
 0.910943E-013
 0.910944E-013
 0.910944E-013
 0.910944E-013
 0.910944E-013
 0.910944E-013
 0.910944E-013
 0.910945E-013
 0.910945E-013
 0.910945E-013
 0.910945E-013
 0.910945E-013
 0.910945E-013
 0.910945E-013
 0.910945E-013
 0.910946E-013
 0.910946E-013
 0.910946E-013
 0.910946E-013
 0.910946E-013
 0.910946E-013
 0.910946E-013
 0.910946E-013
 0.910946E-013
 0.910946E-013
 0.910946E-013
 0.910946E-013
 0.910946E-013
 0.910946E-013
 0.910946E-013
 0.910946E-013
 0.910946E-013
 0.910946E-013
 0.910946E-013
 0.910946E-013
 0.910946E-013
 0.910946E-013
 0.910946E-013
 0.910946E-013
 0.910946E-013
 0.910946E-013
 0.910945E-013
 0.910945E-013
 0.910945E-013
 0.910945E-013
 0.910945E-013
 0.910945E-013
 0.910945E-013
 0.910945E-013
 0.910944E-013
 0.910944E-013
 0.910944E-013
 0.910944E-013
 0.910944E-013
 0.910944E-013
 0.910943E-013
 0.910943E-013
 0.910943E-013
 0.910943E-013
 0.910943E-013
 0.910943E-013
 0.910943E-013
 0.910942E-013
 0.910942E-013
 0.910942E-013
 0.910942E-013
 0.910942E-013
 0.910942E-013
 0.910942E-013
 0.910941E-013
 0.910941E-013
 0.910941E-013
 0.910941E-013
 0.910941E-013
 0.910941E-013
 0.910941E-013
 0.910941E-013
 0.910940E-013
 0.910940E-013
 0.910940E-013
 0.910940E-013
 0.910940E-013
 0.910940E-013
 0.910941E-013
 0.910933E-013
 0.910967E-013
 0.910831E-013
 0.911310E-013
 0.909842E-013
 0.913658E-013
 0.905437E-013
 0.919733E-013
 0.920550E-013
 0.904903E-013
 0.913928E-013
 0.909730E-013
 0.911348E-013
 0.910819E-013
 0.910968E-013
 0.910931E-013
 0.910940E-013
 0.910938E-013
 0.910938E-013
 0.910938E-013
 0.910938E-013
 0.910938E-013
 0.910938E-013
 0.910938E-013
 0.910938E-013
 0.910938E-013
 0.910938E-013
 0.910938E-013
 0.910938E-013
 0.910938E-013
 0.910938E-013
 0.910938E-013
 0.910938E-013
 0.910938E-013
 0.910938E-013
 0.910938E-013
 0.910938E-013
 0.910938E-013
 0.910938E-013
 0.910938E-013
 0.910938E-013
 0.910938E-013
 0.910938E-013
 0.910938E-013
 0.910938E-013
 0.910938E-013
 0.910938E-013
 0.910938E-013
 0.910938E-013
 0.910938E-013
 0.910938E-013
 0.910938E-013
 0.910938E-013
 0.910939E-013
 0.910939E-013
 0.910939E-013
 0.910939E-013
 0.910939E-013
 0.910939E-013
 0.910939E-013
 0.910939E-013
 0.910939E-013
 0.910939E-013
 0.910939E-013
 0.910939E-013
 0.910939E-013
 0.910939E-013
 0.910939E-013
 0.910939E-013
 0.910939E-013
 0.910939E-013
 0.910939E-013
 0.910939E-013
 0.910939E-013
 0.910939E-013
 0.910939E-013
 0.910939E-013
 0.910939E-013
 0.910939E-013
 0.910939E-013
 0.910939E-013
 0.910939E-013
 0.910939E-013
 0.910939E-013
 0.910939E-013
 0.910939E-013
 0.910939E-013
 0.910939E-013
 0.910939E-013
 0.910939E-013
 0.910939E-013
 0.910938E-013
 0.910938E-013
 0.910938E-013
 0.910938E-013
 0.910938E-013
 0.910938E-013
 0.910938E-013
 0.910938E-013
 0.910938E-013
 0.910938E-013
 0.910938E-013
 0.910938E-013
 0.910938E-013
 0.910938E-013
 0.910938E-013
 0.910938E-013
 0.910938E-013
 0.910938E-013
 0.910938E-013
 0.910938E-013
 0.910938E-013
 0.910938E-013
 0.910938E-013
 0.910938E-013
 0.910938E-013
 0.910938E-013
 0.910938E-013
 0.910938E-013
 0.910938E-013
 0.910938E-013
 0.910938E-013
 0.910938E-013
 0.910938E-013
 0.910938E-013
 0.910938E-013
 0.910938E-013
 0.910940E-013
 0.910931E-013
 0.910968E-013
 0.910819E-013
 0.911348E-013
 0.909731E-013
 0.913928E-013
 0.904903E-013
 0.920550E-013
 0.921364E-013
 0.904371E-013
 0.914198E-013
 0.909620E-013
 0.911386E-013
 0.910808E-013
 0.910971E-013
 0.910931E-013
 0.910940E-013
 0.910938E-013
 0.910938E-013
 0.910938E-013
 0.910938E-013
 0.910938E-013
 0.910938E-013
 0.910938E-013
 0.910938E-013
 0.910938E-013
 0.910939E-013
 0.910939E-013
 0.910939E-013
 0.910939E-013
 0.910939E-013
 0.910939E-013
 0.910939E-013
 0.910939E-013
 0.910939E-013
 0.910939E-013
 0.910939E-013
 0.910939E-013
 0.910939E-013
 0.910939E-013
 0.910939E-013
 0.910939E-013
 0.910939E-013
 0.910939E-013
 0.910939E-013
 0.910939E-013
 0.910939E-013
 0.910939E-013
 0.910940E-013
 0.910940E-013
 0.910940E-013
 0.910940E-013
 0.910940E-013
 0.910940E-013
 0.910940E-013
 0.910940E-013
 0.910940E-013