# vtk DataFile Version 3.0
Solution data
ASCII
DATASET STRUCTURED_GRID
DIMENSIONS 128 128 1
POINTS 16384  double
      0.000004      0.000004      0.000000
      0.000012      0.000004      0.000000
      0.000020      0.000004      0.000000
      0.000027      0.000004      0.000000
      0.000035      0.000004      0.000000
      0.000043      0.000004      0.000000
      0.000051      0.000004      0.000000
      0.000059      0.000004      0.000000
      0.000066      0.000004      0.000000
      0.000074      0.000004      0.000000
      0.000082      0.000004      0.000000
      0.000090      0.000004      0.000000
      0.000098      0.000004      0.000000
      0.000105      0.000004      0.000000
      0.000113      0.000004      0.000000
      0.000121      0.000004      0.000000
      0.000129      0.000004      0.000000
      0.000137      0.000004      0.000000
      0.000145      0.000004      0.000000
      0.000152      0.000004      0.000000
      0.000160      0.000004      0.000000
      0.000168      0.000004      0.000000
      0.000176      0.000004      0.000000
      0.000184      0.000004      0.000000
      0.000191      0.000004      0.000000
      0.000199      0.000004      0.000000
      0.000207      0.000004      0.000000
      0.000215      0.000004      0.000000
      0.000223      0.000004      0.000000
      0.000230      0.000004      0.000000
      0.000238      0.000004      0.000000
      0.000246      0.000004      0.000000
      0.000254      0.000004      0.000000
      0.000262      0.000004      0.000000
      0.000270      0.000004      0.000000
      0.000277      0.000004      0.000000
      0.000285      0.000004      0.000000
      0.000293      0.000004      0.000000
      0.000301      0.000004      0.000000
      0.000309      0.000004      0.000000
      0.000316      0.000004      0.000000
      0.000324      0.000004      0.000000
      0.000332      0.000004      0.000000
      0.000340      0.000004      0.000000
      0.000348      0.000004      0.000000
      0.000355      0.000004      0.000000
      0.000363      0.000004      0.000000
      0.000371      0.000004      0.000000
      0.000379      0.000004      0.000000
      0.000387      0.000004      0.000000
      0.000395      0.000004      0.000000
      0.000402      0.000004      0.000000
      0.000410      0.000004      0.000000
      0.000418      0.000004      0.000000
      0.000426      0.000004      0.000000
      0.000434      0.000004      0.000000
      0.000441      0.000004      0.000000
      0.000449      0.000004      0.000000
      0.000457      0.000004      0.000000
      0.000465      0.000004      0.000000
      0.000473      0.000004      0.000000
      0.000480      0.000004      0.000000
      0.000488      0.000004      0.000000
      0.000496      0.000004      0.000000
      0.000504      0.000004      0.000000
      0.000512      0.000004      0.000000
      0.000520      0.000004      0.000000
      0.000527      0.000004      0.000000
      0.000535      0.000004      0.000000
      0.000543      0.000004      0.000000
      0.000551      0.000004      0.000000
      0.000559      0.000004      0.000000
      0.000566      0.000004      0.000000
      0.000574      0.000004      0.000000
      0.000582      0.000004      0.000000
      0.000590      0.000004      0.000000
      0.000598      0.000004      0.000000
      0.000605      0.000004      0.000000
      0.000613      0.000004      0.000000
      0.000621      0.000004      0.000000
      0.000629      0.000004      0.000000
      0.000637      0.000004      0.000000
      0.000645      0.000004      0.000000
      0.000652      0.000004      0.000000
      0.000660      0.000004      0.000000
      0.000668      0.000004      0.000000
      0.000676      0.000004      0.000000
      0.000684      0.000004      0.000000
      0.000691      0.000004      0.000000
      0.000699      0.000004      0.000000
      0.000707      0.000004      0.000000
      0.000715      0.000004      0.000000
      0.000723      0.000004      0.000000
      0.000730      0.000004      0.000000
      0.000738      0.000004      0.000000
      0.000746      0.000004      0.000000
      0.000754      0.000004      0.000000
      0.000762      0.000004      0.000000
      0.000770      0.000004      0.000000
      0.000777      0.000004      0.000000
      0.000785      0.000004      0.000000
      0.000793      0.000004      0.000000
      0.000801      0.000004      0.000000
      0.000809      0.000004      0.000000
      0.000816      0.000004      0.000000
      0.000824      0.000004      0.000000
      0.000832      0.000004      0.000000
      0.000840      0.000004      0.000000
      0.000848      0.000004      0.000000
      0.000855      0.000004      0.000000
      0.000863      0.000004      0.000000
      0.000871      0.000004      0.000000
      0.000879      0.000004      0.000000
      0.000887      0.000004      0.000000
      0.000895      0.000004      0.000000
      0.000902      0.000004      0.000000
      0.000910      0.000004      0.000000
      0.000918      0.000004      0.000000
      0.000926      0.000004      0.000000
      0.000934      0.000004      0.000000
      0.000941      0.000004      0.000000
      0.000949      0.000004      0.000000
      0.000957      0.000004      0.000000
      0.000965      0.000004      0.000000
      0.000973      0.000004      0.000000
      0.000980      0.000004      0.000000
      0.000988      0.000004      0.000000
      0.000996      0.000004      0.000000
      0.000004      0.000012      0.000000
      0.000012      0.000012      0.000000
      0.000020      0.000012      0.000000
      0.000027      0.000012      0.000000
      0.000035      0.000012      0.000000
      0.000043      0.000012      0.000000
      0.000051      0.000012      0.000000
      0.000059      0.000012      0.000000
      0.000066      0.000012      0.000000
      0.000074      0.000012      0.000000
      0.000082      0.000012      0.000000
      0.000090      0.000012      0.000000
      0.000098      0.000012      0.000000
      0.000105      0.000012      0.000000
      0.000113      0.000012      0.000000
      0.000121      0.000012      0.000000
      0.000129      0.000012      0.000000
      0.000137      0.000012      0.000000
      0.000145      0.000012      0.000000
      0.000152      0.000012      0.000000
      0.000160      0.000012      0.000000
      0.000168      0.000012      0.000000
      0.000176      0.000012      0.000000
      0.000184      0.000012      0.000000
      0.000191      0.000012      0.000000
      0.000199      0.000012      0.000000
      0.000207      0.000012      0.000000
      0.000215      0.000012      0.000000
      0.000223      0.000012      0.000000
      0.000230      0.000012      0.000000
      0.000238      0.000012      0.000000
      0.000246      0.000012      0.000000
      0.000254      0.000012      0.000000
      0.000262      0.000012      0.000000
      0.000270      0.000012      0.000000
      0.000277      0.000012      0.000000
      0.000285      0.000012      0.000000
      0.000293      0.000012      0.000000
      0.000301      0.000012      0.000000
      0.000309      0.000012      0.000000
      0.000316      0.000012      0.000000
      0.000324      0.000012      0.000000
      0.000332      0.000012      0.000000
      0.000340      0.000012      0.000000
      0.000348      0.000012      0.000000
      0.000355      0.000012      0.000000
      0.000363      0.000012      0.000000
      0.000371      0.000012      0.000000
      0.000379      0.000012      0.000000
      0.000387      0.000012      0.000000
      0.000395      0.000012      0.000000
      0.000402      0.000012      0.000000
      0.000410      0.000012      0.000000
      0.000418      0.000012      0.000000
      0.000426      0.000012      0.000000
      0.000434      0.000012      0.000000
      0.000441      0.000012      0.000000
      0.000449      0.000012      0.000000
      0.000457      0.000012      0.000000
      0.000465      0.000012      0.000000
      0.000473      0.000012      0.000000
      0.000480      0.000012      0.000000
      0.000488      0.000012      0.000000
      0.000496      0.000012      0.000000
      0.000504      0.000012      0.000000
      0.000512      0.000012      0.000000
      0.000520      0.000012      0.000000
      0.000527      0.000012      0.000000
      0.000535      0.000012      0.000000
      0.000543      0.000012      0.000000
      0.000551      0.000012      0.000000
      0.000559      0.000012      0.000000
      0.000566      0.000012      0.000000
      0.000574      0.000012      0.000000
      0.000582      0.000012      0.000000
      0.000590      0.000012      0.000000
      0.000598      0.000012      0.000000
      0.000605      0.000012      0.000000
      0.000613      0.000012      0.000000
      0.000621      0.000012      0.000000
      0.000629      0.000012      0.000000
      0.000637      0.000012      0.000000
      0.000645      0.000012      0.000000
      0.000652      0.000012      0.000000
      0.000660      0.000012      0.000000
      0.000668      0.000012      0.000000
      0.000676      0.000012      0.000000
      0.000684      0.000012      0.000000
      0.000691      0.000012      0.000000
      0.000699      0.000012      0.000000
      0.000707      0.000012      0.000000
      0.000715      0.000012      0.000000
      0.000723      0.000012      0.000000
      0.000730      0.000012      0.000000
      0.000738      0.000012      0.000000
      0.000746      0.000012      0.000000
      0.000754      0.000012      0.000000
      0.000762      0.000012      0.000000
      0.000770      0.000012      0.000000
      0.000777      0.000012      0.000000
      0.000785      0.000012      0.000000
[...]
POINT_DATA 16384
SCALARS rhoe double
LOOKUP_TABLE default
 0.914845E-013
 0.913171E-013
 0.914919E-013
 0.915811E-013
 0.916867E-013
 0.917895E-013
 0.918924E-013
 0.919950E-013
 0.920974E-013
 0.921996E-013
 0.923014E-013
 0.924030E-013
 0.925043E-013
 0.926054E-013
 0.927060E-013
 0.928064E-013
 0.929063E-013
 0.930059E-013
 0.931050E-013
 0.932037E-013
 0.933018E-013
 0.933994E-013
 0.934965E-013
 0.935929E-013
 0.936885E-013
 0.937835E-013
 0.938776E-013
 0.939709E-013
 0.940632E-013
 0.941546E-013
 0.942448E-013
 0.943339E-013
 0.944218E-013
 0.945083E-013
 0.945934E-013
 0.946770E-013
 0.947590E-013
 0.948393E-013
 0.949179E-013
 0.949945E-013
 0.950691E-013
 0.951417E-013
 0.952120E-013
 0.952800E-013
 0.953456E-013
 0.954087E-013
 0.954692E-013
 0.955270E-013
 0.955820E-013
 0.956340E-013
 0.956831E-013
 0.957290E-013
 0.957718E-013
 0.958113E-013
 0.958475E-013
 0.958803E-013
 0.959096E-013
 0.959353E-013
 0.959575E-013
 0.959761E-013
 0.959910E-013
 0.960022E-013
 0.960097E-013
 0.960134E-013
 0.960134E-013
 0.960096E-013
 0.960022E-013
 0.959910E-013
 0.959761E-013
 0.959575E-013
 0.959353E-013
 0.959095E-013
 0.958802E-013
 0.958474E-013
 0.958112E-013
 0.957717E-013
 0.957289E-013
 0.956829E-013
 0.956339E-013
 0.955818E-013
 0.955269E-013
 0.954691E-013
 0.954086E-013
 0.953455E-013
 0.952798E-013
 0.952118E-013
 0.951415E-013
 0.950689E-013
 0.949943E-013
 0.949177E-013
 0.948391E-013
 0.947588E-013
 0.946768E-013
 0.945932E-013
 0.945081E-013
 0.944216E-013
 0.943337E-013
 0.942446E-013
 0.941544E-013
 0.940630E-013
 0.939707E-013
 0.938774E-013
 0.937833E-013
 0.936883E-013
 0.935926E-013
 0.934963E-013
 0.933992E-013
 0.933016E-013
 0.932035E-013
 0.931048E-013
 0.930057E-013
 0.929061E-013
 0.928062E-013
 0.927059E-013
 0.926052E-013
 0.925042E-013
 0.924029E-013
 0.923013E-013
 0.921994E-013
 0.920973E-013
 0.919949E-013
 0.918923E-013
 0.917894E-013
 0.916866E-013
 0.915810E-013
 0.914918E-013
 0.913171E-013
 0.914844E-013
 0.913171E-013
 0.909193E-013
 0.909904E-013
 0.909324E-013
 0.909013E-013
 0.908658E-013
 0.908311E-013
 0.907963E-013
 0.907617E-013
 0.907272E-013
 0.906927E-013
 0.906584E-013
 0.906242E-013
 0.905901E-013
 0.905562E-013
 0.905223E-013
 0.904886E-013
 0.904551E-013
 0.904217E-013
 0.903885E-013
 0.903554E-013
 0.903226E-013
 0.902900E-013
 0.902576E-013
 0.902254E-013
 0.901935E-013
 0.901619E-013
 0.901306E-013
 0.900996E-013
 0.900690E-013
 0.900387E-013
 0.900089E-013
 0.899795E-013
 0.899505E-013
 0.899220E-013
 0.898940E-013
 0.898666E-013
 0.898397E-013
 0.898134E-013
 0.897878E-013
 0.897629E-013
 0.897387E-013
 0.897152E-013
 0.896925E-013
 0.896706E-013
 0.896495E-013
 0.896293E-013
 0.896101E-013
 0.895917E-013
 0.895744E-013
 0.895581E-013
 0.895427E-013
 0.895285E-013
 0.895153E-013
 0.895033E-013
 0.894924E-013
 0.894826E-013
 0.894740E-013
 0.894667E-013
 0.894605E-013
 0.894555E-013
 0.894518E-013
 0.894493E-013
 0.894481E-013
 0.894481E-013
 0.894493E-013
 0.894518E-013
 0.894555E-013
 0.894605E-013
 0.894667E-013
 0.894741E-013
 0.894827E-013
 0.894924E-013
 0.895033E-013
 0.895154E-013
 0.895286E-013
 0.895428E-013
 0.895581E-013
 0.895745E-013
 0.895918E-013
 0.896101E-013
 0.896294E-013
 0.896496E-013
 0.896707E-013
 0.896926E-013
 0.897153E-013
 0.897388E-013
 0.897630E-013
 0.897879E-013
 0.898135E-013
 0.898398E-013
 0.898667E-013
 0.898941E-013
 0.899221E-013
 0.899506E-013
 0.899796E-013
 0.900090E-013
 0.900389E-013
 0.900691E-013
 0.900997E-013
 0.901307E-013
 0.901620E-013
 0.901936E-013
 0.902255E-013
 0.902577E-013
 0.902901E-013
 0.903227E-013
 0.903555E-013
 0.903886E-013
 0.904218E-013
 0.904552E-013
 0.904887E-013
 0.905224E-013
 0.905562E-013
 0.905902E-013
 0.906243E-013
 0.906585E-013
 0.906928E-013
 0.907272E-013
 0.907618E-013
 0.907964E-013
 0.908311E-013
 0.908659E-013
 0.909013E-013
 0.909325E-013
 0.909904E-013
 0.909194E-013
 0.913171E-013
 0.914919E-013
 0.909904E-013
 0.911495E-013
 0.911250E-013
 0.911388E-013
 0.911462E-013
 0.911544E-013
 0.911626E-013
 0.911707E-013
 0.911788E-013
 0.911868E-013
 0.911949E-013
 0.912029E-013
 0.912108E-013
 0.912188E-013
 0.912267E-013
 0.912346E-013
 0.912424E-013
 0.912502E-013
 0.912580E-013
 0.912657E-013
 0.912734E-013
 0.912810E-013
 0.912886E-013
 0.912961E-013
 0.913035E-013
 0.913109E-013
 0.913182E-013
 0.913255E-013
 0.913326E-013
 0.913397E-013
 0.913467E-013
 0.913535E-013
 0.913603E-013
 0.913670E-013
 0.913735E-013
 0.913799E-013
 0.913862E-013
 0.913923E-013
 0.913983E-013
 0.914041E-013
 0.914098E-013
 0.914152E-013
 0.914205E-013
 0.914257E-013
 0.914306E-013
 0.914353E-013
 0.914398E-013
 0.914441E-013
 0.914481E-013
 0.914519E-013
 0.914555E-013
 0.914588E-013
 0.914619E-013
 0.914647E-013
 0.914673E-013
 0.914696E-013
 0.914716E-013
 0.914733E-013
 0.914747E-013
 0.914759E-013
 0.914768E-013
 0.914773E-013
 0.914776E-013
 0.914776E-013
 0.914773E-013
 0.914768E-013
 0.914759E-013
 0.914747E-013
 0.914733E-013
 0.914716E-013
 0.914696E-013
 0.914673E-013
 0.914647E-013
 0.914619E-013
 0.914588E-013
 0.914555E-013
 0.914519E-013
 0.914481E-013
 0.914441E-013
 0.914398E-013
 0.914353E-013
 0.914306E-013
 0.914256E-013
 0.914205E-013
 0.914152E-013
 0.914097E-013
 0.914041E-013
 0.913983E-013
 0.913923E-013
 0.913861E-013
 0.913799E-013
 0.913735E-013
 0.913669E-013
 0.913603E-013
 0.913535E-013
 0.913466E-013
 0.913397E-013
 0.913326E-013
 0.913254E-013
 0.913182E-013
 0.913109E-013
 0.913035E-013
 0.912961E-013
 0.912886E-013
 0.912810E-013
 0.912734E-013
 0.912657E-013
 0.912580E-013
 0.912502E-013
 0.912424E-013
 0.912346E-013
 0.912267E-013
 0.912188E-013
 0.912108E-013
 0.912028E-013
 0.911948E-013
 0.911868E-013
 0.911788E-013
 0.911707E-013
 0.911626E-013
 0.911544E-013
 0.911462E-013
 0.911388E-013
 0.911250E-013
 0.911495E-013
 0.909904E-013
 0.914918E-013
 0.915811E-013
 0.909324E-013
 0.911250E-013
 0.910812E-013
 0.910869E-013
 0.910845E-013
 0.910831E-013
 0.910817E-013
 0.910802E-013
 0.910788E-013
 0.910773E-013
 0.910759E-013
 0.910745E-013
 0.910731E-013
 0.910717E-013
 0.910703E-013
 0.910689E-013
 0.910675E-013
 0.910661E-013
 0.910647E-013
 0.910633E-013
 0.910620E-013
 0.910606E-013
 0.910593E-013
 0.910579E-013
 0.910566E-013
 0.910553E-013
 0.910540E-013
 0.910527E-013
 0.910515E-013
 0.910502E-013
 0.910490E-013
 0.910478E-013
 0.910466E-013
 0.910454E-013
 0.910443E-013
 0.910432E-013
 0.910421E-013
 0.910410E-013
 0.910400E-013
 0.910389E-013
 0.910380E-013
 0.910370E-013
 0.910361E-013
 0.910352E-013
 0.910343E-013
 0.910335E-013
 0.910327E-013
 0.910320E-013
 0.910313E-013
 0.910306E-013
 0.910300E-013
 0.910294E-013
 0.910289E-013
 0.910284E-013
 0.910280E-013
 0.910276E-013
 0.910273E-013
 0.910270E-013
 0.910267E-013
 0.910265E-013
 0.910264E-013
 0.910263E-013
 0.910262E-013
 0.910262E-013
 0.910263E-013
 0.910264E-013
 0.910265E-013
 0.910267E-013
 0.910270E-013
 0.910273E-013
 0.910276E-013
 0.910280E-013
 0.910284E-013
 0.910289E-013
 0.910294E-013
 0.910300E-013
 0.910306E-013
 0.910313E-013
 0.910320E-013
 0.910327E-013
 0.910335E-013
 0.910343E-013
 0.910352E-013
 0.910361E-013
 0.910370E-013
 0.910380E-013
 0.910389E-013
 0.910400E-013
 0.910410E-013
 0.910421E-013
 0.910432E-013
 0.910443E-013
 0.910455E-013
 0.910466E-013
 0.910478E-013
 0.910490E-013
 0.910502E-013
 0.910515E-013
 0.910528E-013
 0.910540E-013
 0.910553E-013
 0.910566E-013
 0.910579E-013
 0.910593E-013
 0.910606E-013
 0.910620E-013
 0.910633E-013
 0.910647E-013
 0.910661E-013
 0.910675E-013
 0.910689E-013
 0.910703E-013
 0.910717E-013
 0.910731E-013
 0.910745E-013
 0.910759E-013
 0.910774E-013
 0.910788E-013
 0.910802E-013
 0.910817E-013
 0.910831E-013
 0.910845E-013
 0.910869E-013
 0.910812E-013
 0.911250E-013
 0.909325E-013
 0.915810E-013
 0.916867E-013
 0.909013E-013
 0.911388E-013
 0.910869E-013
 0.910960E-013
 0.910950E-013
 0.910954E-013
 0.910956E-013
 0.910958E-013
 0.910960E-013
 0.910962E-013
 0.910964E-013
 0.910966E-013
 0.910968E-013
 0.910970E-013
 0.910972E-013
 0.910974E-013
 0.910976E-013
 0.910978E-013
 0.910980E-013
 0.910982E-013
 0.910984E-013
 0.910986E-013
 0.910988E-013
 0.910990E-013
 0.910992E-013
 0.910994E-013
 0.910996E-013
 0.910998E-013
 0.910999E-013
 0.911001E-013
 0.911003E-013
 0.911005E-013
 0.911007E-013
 0.911009E-013
 0.911010E-013
 0.911012E-013
 0.911014E-013
 0.911016E-013
 0.911017E-013
 0.911019E-013
 0.911020E-013
 0.911022E-013
 0.911024E-013
 0.911025E-013
 0.911026E-013
 0.911028E-013
 0.911029E-013
 0.911030E-013
 0.911032E-013
 0.911033E-013
 0.911034E-013
 0.911035E-013
 0.911036E-013
 0.911036E-013
 0.911037E-013
 0.911038E-013
 0.911039E-013
 0.911039E-013
 0.911040E-013
 0.911040E-013
 0.911040E-013
 0.911040E-013
 0.911040E-013
 0.911040E-013
 0.911040E-013
 0.911040E-013
 0.911040E-013
 0.911040E-013
 0.911039E-013
 0.911039E-013
 0.911038E-013
 0.911037E-013
 0.911036E-013
 0.911036E-013
 0.911035E-013
 0.911034E-013
 0.911033E-013
 0.911032E-013
 0.911030E-013
 0.911029E-013
 0.911028E-013
 0.911026E-013
 0.911025E-013
 0.911024E-013
 0.911022E-013
 0.911021E-013
 0.911019E-013
 0.911017E-013
 0.911016E-013
 0.911014E-013
 0.911012E-013
 0.911010E-013
 0.911009E-013
 0.911007E-013
 0.911005E-013
 0.911003E-013
 0.911001E-013
 0.911000E-013
 0.910998E-013
 0.910996E-013
 0.910994E-013
 0.910992E-013
 0.910990E-013
 0.910988E-013
 0.910986E-013
 0.910984E-013
 0.910982E-013
 0.910980E-013
 0.910978E-013
 0.910976E-013
 0.910974E-013
 0.910972E-013
 0.910970E-013
 0.910968E-013
 0.910966E-013
 0.910964E-013
 0.910962E-013
 0.910960E-013
 0.910958E-013
 0.910956E-013
 0.910954E-013
 0.910950E-013
 0.910961E-013
 0.910869E-013
 0.911388E-013
 0.909013E-013
 0.916866E-013
 0.917895E-013
 0.908658E-013
 0.911462E-013
 0.910845E-013
 0.910950E-013
 0.910935E-013
 0.910937E-013
 0.910936E-013
 0.910936E-013
 0.910936E-013
 0.910935E-013
 0.910935E-013
 0.910935E-013
 0.910935E-013
 0.910934E-013
 0.910934E-013
 0.910934E-013
 0.910934E-013
 0.910933E-013
 0.910933E-013
 0.910933E-013
 0.910933E-013
 0.910933E-013
 0.910932E-013
 0.910932E-013
 0.910932E-013
 0.910932E-013
 0.910932E-013
 0.910932E-013
 0.910932E-013
 0.910931E-013
 0.910931E-013
 0.910931E-013
 0.910931E-013
 0.910931E-013
 0.910931E-013
 0.910931E-013
 0.910931E-013
 0.910931E-013
 0.910931E-013
 0.910931E-013
 0.910931E-013
 0.910931E-013
 0.910931E-013
 0.910931E-013
 0.910931E-013
 0.910931E-013
 0.910931E-013
 0.910931E-013
 0.910931E-013
 0.910931E-013
 0.910932E-013
 0.910932E-013
 0.910932E-013
 0.910932E-013
 0.910932E-013
 0.910932E-013
 0.910932E-013
 0.910932E-013
 0.910932E-013
 0.910932E-013
 0.910932E-013
 0.910932E-013
 0.910932E-013
 0.910932E-013
 0.910932E-013
 0.910932E-013
 0.910932E-013
 0.910932E-013
 0.910932E-013
 0.910932E-013
 0.910932E-013
 0.910932E-013
 0.910932E-013
 0.910932E-013
 0.910932E-013
 0.910932E-013
 0.910932E-013
 0.910931E-013
 0.910931E-013
 0.910931E-013
 0.910931E-013
 0.910931E-013
 0.910931E-013
 0.910931E-013
 0.910931E-013
 0.910931E-013
 0.910931E-013
 0.910931E-013
 0.910931E-013
 0.910931E-013
 0.910931E-013
 0.910931E-013
 0.910931E-013
 0.910931E-013
 0.910931E-013
 0.910931E-013
 0.910931E-013
 0.910932E-013
 0.910932E-013
 0.910932E-013
 0.910932E-013
 0.910932E-013
 0.910932E-013
 0.910933E-013
 0.910933E-013
 0.910933E-013
 0.910933E-013
 0.910933E-013
 0.910934E-013
 0.910934E-013
 0.910934E-013
 0.910934E-013
 0.910934E-013
 0.910935E-013
 0.910935E-013
 0.910935E-013
 0.910935E-013
 0.910936E-013
 0.910936E-013
 0.910936E-013
 0.910937E-013
 0.910935E-013
 0.910950E-013
 0.910845E-013
 0.911462E-013
 0.908659E-013
 0.917894E-013
 0.918924E-013
 0.908311E-013
 0.911544E-013
 0.910831E-013
 0.910954E-013
 0.910937E-013
 0.910939E-013
 0.910938E-013
 0.910938E-013
 0.910938E-013
 0.910938E-013
 0.910939E-013
 0.910939E-013
 0.910939E-013
 0.910939E-013
 0.910939E-013
 0.910939E-013
 0.910939E-013
 0.910939E-013
 0.910939E-013
 0.910939E-013
 0.910939E-013
 0.910939E-013
 0.910939E-013
 0.910939E-013
 0.910939E-013
 0.910939E-013
 0.910939E-013
 0.910940E-013
 0.910940E-013
 0.910940E-013
 0.910940E-013
 0.910940E-013
 0.910940E-013
 0.910941E-013
 0.910941E-013
 0.910941E-013
 0.910941E-013
 0.910941E-013
 0.910942E-013
 0.910942E-013
 0.910942E-013
 0.910942E-013
 0.910943E-013
 0.910943E-013
 0.910943E-013
 0.910943E-013
 0.910944E-013
 0.910944E-013
 0.910944E-013
 0.910944E-013
 0.910945E-013
 0.910945E-013
 0.910945E-013
 0.910945E-013
 0.910946E-013
 0.910946E-013
 0.910946E-013
 0.910946E-013
 0.910946E-013
 0.910946E-013
 0.910946E-013
 0.910946E-013
 0.910946E-013
 0.910946E-013
 0.910946E-013
 0.910946E-013
 0.910946E-013
 0.910946E-013
 0.910946E-013
 0.910946E-013
 0.910946E-013
 0.910946E-013
 0.910945E-013
 0.910945E-013
 0.910945E-013
 0.910945E-013
 0.910944E-013
 0.910944E-013
 0.910944E-013
 0.910944E-013
 0.910943E-013
 0.910943E-013
 0.910943E-013
 0.910943E-013
 0.910942E-013
 0.910942E-013
 0.910942E-013
 0.910942E-013
 0.910941E-013
 0.910941E-013
 0.910941E-013
 0.910941E-013
 0.910941E-013
 0.910940E-013
 0.910940E-013
 0.910940E-013
 0.910940E-013
 0.910940E-013
 0.910940E-013
 0.910940E-013
 0.910939E-013
 0.910939E-013
 0.910939E-013
 0.910939E-013
 0.910939E-013
 0.910939E-013
 0.910939E-013
 0.910939E-013
 0.910939E-013
 0.910939E-013
 0.910939E-013
 0.910939E-013
 0.910939E-013
 0.910939E-013
 0.910939E-013
 0.910939E-013
 0.910939E-013
 0.910939E-013
 0.910939E-013
 0.910938E-013
 0.910939E-013
 0.910937E-013
 0.910954E-013
 0.910831E-013
 0.911544E-013
 0.908311E-013
 0.918923E-013
 0.919950E-013
 0.907963E-013
 0.911626E-013
 0.910817E-013
 0.910956E-013
 0.910936E-013
 0.910938E-013
 0.910938E-013
 0.910938E-013
 0.910938E-013
 0.910938E-013
 0.910938E-013
 0.910938E-013
 0.910938E-013
 0.910938E-013
 0.910938E-013
 0.910938E-013
 0.910938E-013
 0.910938E-013
 0.910938E-013
 0.910938E-013
 0.910938E-013
 0.910938E-013
 0.910938E-013
 0.910939E-013
 0.910939E-013
 0.910939E-013
 0.910939E-013
 0.910939E-013
 0.910939E-013
 0.910939E-013
 0.910939E-013
 0.910940E-013
 0.910940E-013
 0.910940E-013
 0.910940E-013
 0.910940E-013
 0.910941E-013
 0.910941E-013
 0.910941E-013
 0.910941E-013
 0.910942E-013
 0.910942E-013
 0.910942E-013
 0.910942E-013
 0.910943E-013
 0.910943E-013
 0.910943E-013
 0.910944E-013
 0.910944E-013
 0.910944E-013
 0.910944E-013
 0.910945E-013
 0.910945E-013
 0.910945E-013
 0.910945E-013
 0.910946E-013
 0.910946E-013
 0.910946E-013
 0.910946E-013
 0.910946E-013
 0.910946E-013
 0.910946E-013
 0.910946E-013
 0.910946E-013
 0.910946E-013
 0.910946E-013
 0.910946E-013
 0.910946E-013
 0.910946E-013
 0.910946E-013
 0.910946E-013
 0.910945E-013
 0.910945E-013
 0.910945E-013
 0.910945E-013
 0.910944E-013
 0.910944E-013
 0.910944E-013
 0.910944E-013
 0.910943E-013
 0.910943E-013
 0.910943E-013
 0.910943E-013
 0.910942E-013
 0.910942E-013
 0.910942E-013
 0.910941E-013
 0.910941E-013
 0.910941E-013
 0.910941E-013
 0.910940E-013
 0.910940E-013
 0.910940E-013
 0.910940E-013
 0.910940E-013
 0.910939E-013
 0.910939E-013
 0.910939E-013
 0.910939E-013
 0.910939E-013
 0.910939E-013
 0.910939E-013
 0.910939E-013
 0.910939E-013
 0.910939E-013
 0.910938E-013
 0.910938E-013
 0.910938E-013
 0.910938E-013
 0.910938E-013
 0.910938E-013
 0.910938E-013
 0.910938E-013
 0.910938E-013
 0.910938E-013
 0.910938E-013
 0.910938E-013
 0.910938E-013
 0.910938E-013
 0.910938E-013
 0.910939E-013
 0.910936E-013
 0.910956E-013
 0.910817E-013
 0.911626E-013
 0.907964E-013
 0.919949E-013
 0.920974E-013
 0.907617E-013
 0.911707E-013
 0.910802E-013
 0.910958E-013
 0.910936E-013
 0.910938E-013
 0.910938E-013
 0.910938E-013
 0.910938E-013
 0.910938E-013
 0.910938E-013
 0.910938E-013
 0.910938E-013
 0.910938E-013
 0.910938E-013
 0.910938E-013
 0.910938E-013
 0.910938E-013
 0.910938E-013
 0.910938E-013
 0.910938E-013
 0.910939E-013
 0.910939E-013
 0.910939E-013
 0.910939E-013
 0.910939E-013
 0.910939E-013
 0.910939E-013
 0.910939E-013
 0.910940E-013
 0.910940E-013
 0.910940E-013
 0.910940E-013
 0.910940E-013
 0.910941E-013
 0.910941E-013
 0.910941E-013
 0.910941E-013
 0.910942E-013
 0.910942E-013
 0.910942E-013
 0.910943E-013
 0.910943E-013
 0.910943E-013
 0.910944E-013
 0.910944E-013
 0.910944E-013
 0.910945E-013
 0.910945E-013
 0.910945E-013
 0.910946E-013
 0.910946E-013
 0.910946E-013
 0.910947E-013
 0.910947E-013
 0.910947E-013
 0.910947E-013
 0.910948E-013
 0.910948E-013
 0.910948E-013
 0.910948E-013
 0.910948E-013
 0.910948E-013
 0.910948E-013
 0.910948E-013
 0.910948E-013
 0.910948E-013
 0.910948E-013
 0.910948E-013
 0.910947E-013
 0.910947E-013
 0.910947E-013
 0.910947E-013
 0.910946E-013
 0.910946E-013
 0.910946E-013
 0.910946E-013
 0.910945E-013
 0.910945E-013
 0.910945E-013
 0.910944E-013
 0.910944E-013
 0.910943E-013
 0.910943E-013
 0.910943E-013
 0.910942E-013
 0.910942E-013
 0.910942E-013
 0.910942E-013
 0.910941E-013
 0.910941E-013
 0.910941E-013
 0.910940E-013
 0.910940E-013
 0.910940E-013
 0.910940E-013
 0.910940E-013
 0.910939E-013
 0.910939E-013
 0.910939E-013
 0.910939E-013
 0.910939E-013
 0.910939E-013
 0.910939E-013
 0.910939E-013
 0.910939E-013
 0.910939E-013
 0.910938E-013
 0.910938E-013
 0.910938E-013
 0.910938E-013
 0.910938E-013
 0.910938E-013
 0.910938E-013
 0.910938E-013
 0.910938E-013
 0.910938E-013
 0.910938E-013
 0.910938E-013
 0.910938E-013
 0.910939E-013
 0.910936E-013
 0.910958E-013
 0.910802E-013
 0.911707E-013
 0.907618E-013
 0.920973E-013
 0.921996E-013
 0.907272E-013
 0.911788E-013
 0.910788E-013
 0.910960E-013
 0.910936E-013
 0.910938E-013
 0.910938E-013
 0.910938E-013
 0.910938E-013
 0.910938E-013
 0.910938E-013
 0.910938E-013
 0.910938E-013
 0.910938E-013
 0.910938E-013
 0.910938E-013
 0.910938E-013
 0.910938E-013
 0.910938E-013
 0.910938E-013
 0.910939E-013
 0.910939E-013
 0.910939E-013
 0.910939E-013
 0.910939E-013
 0.910939E-013
 0.910939E-013
 0.910939E-013
 0.910940E-013
 0.910940E-013
 0.910940E-013
 0.910940E-013
 0.910941E-013
 0.910941E-013
 0.910941E-013
 0.910941E-013
 0.910942E-013
 0.910942E-013
 0.910942E-013
 0.910943E-013
 0.910943E-013
 0.910944E-013
 0.910944E-013
 0.910944E-013
 0.910945E-013
 0.910945E-013
 0.910946E-013
 0.910946E-013
 0.910946E-013
 0.910947E-013
 0.910947E-013
 0.910948E-013
 0.910948E-013
 0.910948E-013
 0.910949E-013
 0.910949E-013
 0.910949E-013
 0.910949E-013
 0.910950E-013
 0.910950E-013
 0.910950E-013
 0.910950E-013
 0.910950E-013
 0.910950E-013
 0.910950E-013
 0.910950E-013
 0.910950E-013
 0.910950E-013
 0.910949E-013
 0.910949E-013
 0.910949E-013
 0.910949E-013
 0.910948E-013
 0.910948E-013
 0.910948E-013
 0.910947E-013
 0.910947E-013
 0.910947E-013
 0.910946E-013
 0.910946E-013
 0.910945E-013
 0.910945E-013
 0.910944E-013
 0.910944E-013
 0.910944E-013
 0.910943E-013
 0.910943E-013
 0.910943E-013
 0.910942E-013
 0.910942E-013
 0.910942E-013
 0.910941E-013
 0.910941E-013
 0.910941E-013
 0.910940E-013
 0.910940E-013
 0.910940E-013
 0.910940E-013
 0.910940E-013
 0.910939E-013
 0.910939E-013
 0.910939E-013
 0.910939E-013
 0.910939E-013
 0.910939E-013
 0.910939E-013
 0.910939E-013
 0.910939E-013
 0.910938E-013
 0.910938E-013
 0.910938E-013
 0.910938E-013
 0.910938E-013
 0.910938E-013
 0.910938E-013
 0.910938E-013
 0.910938E-013
 0.910938E-013
 0.910938E-013
 0.910938E-013
 0.910939E-013
 0.910936E-013
 0.910960E-013
 0.910788E-013
 0.911788E-013
 0.907273E-013
 0.921994E-013
 0.923014E-013
 0.906927E-013
 0.911868E-013
 0.910773E-013
 0.910962E-013
 0.910935E-013
 0.910938E-013
 0.910938E-013
 0.910938E-013
 0.910938E-013
 0.910938E-013
 0.910938E-013
 0.910938E-013
 0.910938E-013
 0.910938E-013
 0.910938E-013
 0.910938E-013
 0.910938E-013
 0.910938E-013
 0.910938E-013
 0.910939E-013
 0.910939E-013
 0.910939E-013
 0.910939E-013
 0.910939E-013
 0.910939E-013
 0.910939E-013
 0.910940E-013
 0.910940E-013
 0.910940E-013
 0.910940E-013
 0.910940E-013
 0.910941E-013
 0.910941E-013
 0.910941E-013
 0.910942E-013
 0.910942E-013
 0.910942E-013
 0.910943E-013
 0.910943E-013
 0.910944E-013
 0.910944E-013
 0.910945E-013
 0.910945E-013
 0.910946E-013
 0.910946E-013
 0.910947E-013
 0.910947E-013
 0.910948E-013