# vtk DataFile Version 3.0
Solution data
ASCII
DATASET STRUCTURED_GRID
DIMENSIONS 128 128 1
POINTS 16384  double
      0.000004      0.000004      0.000000
      0.000012      0.000004      0.000000
      0.000020      0.000004      0.000000
      0.000027      0.000004      0.000000
      0.000035      0.000004      0.000000
      0.000043      0.000004      0.000000
      0.000051      0.000004      0.000000
      0.000059      0.000004      0.000000
      0.000066      0.000004      0.000000
      0.000074      0.000004      0.000000
      0.000082      0.000004      0.000000
      0.000090      0.000004      0.000000
      0.000098      0.000004      0.000000
      0.000105      0.000004      0.000000
      0.000113      0.000004      0.000000
      0.000121      0.000004      0.000000
      0.000129      0.000004      0.000000
      0.000137      0.000004      0.000000
      0.000145      0.000004      0.000000
      0.000152      0.000004      0.000000
      0.000160      0.000004      0.000000
      0.000168      0.000004      0.000000
      0.000176      0.000004      0.000000
      0.000184      0.000004      0.000000
      0.000191      0.000004      0.000000
      0.000199      0.000004      0.000000
      0.000207      0.000004      0.000000
      0.000215      0.000004      0.000000
      0.000223      0.000004      0.000000
      0.000230      0.000004      0.000000
      0.000238      0.000004      0.000000
      0.000246      0.000004      0.000000
      0.000254      0.000004      0.000000
      0.000262      0.000004      0.000000
      0.000270      0.000004      0.000000
      0.000277      0.000004      0.000000
      0.000285      0.000004      0.000000
      0.000293      0.000004      0.000000
      0.000301      0.000004      0.000000
      0.000309      0.000004      0.000000
      0.000316      0.000004      0.000000
      0.000324      0.000004      0.000000
      0.000332      0.000004      0.000000
      0.000340      0.000004      0.000000
      0.000348      0.000004      0.000000
      0.000355      0.000004      0.000000
      0.000363      0.000004      0.000000
      0.000371      0.000004      0.000000
      0.000379      0.000004      0.000000
      0.000387      0.000004      0.000000
      0.000395      0.000004      0.000000
      0.000402      0.000004      0.000000
      0.000410      0.000004      0.000000
      0.000418      0.000004      0.000000
      0.000426      0.000004      0.000000
      0.000434      0.000004      0.000000
      0.000441      0.000004      0.000000
      0.000449      0.000004      0.000000
      0.000457      0.000004      0.000000
      0.000465      0.000004      0.000000
      0.000473      0.000004      0.000000
      0.000480      0.000004      0.000000
      0.000488      0.000004      0.000000
      0.000496      0.000004      0.000000
      0.000504      0.000004      0.000000
      0.000512      0.000004      0.000000
      0.000520      0.000004      0.000000
      0.000527      0.000004      0.000000
      0.000535      0.000004      0.000000
      0.000543      0.000004      0.000000
      0.000551      0.000004      0.000000
      0.000559      0.000004      0.000000
      0.000566      0.000004      0.000000
      0.000574      0.000004      0.000000
      0.000582      0.000004      0.000000
      0.000590      0.000004      0.000000
      0.000598      0.000004      0.000000
      0.000605      0.000004      0.000000
      0.000613      0.000004      0.000000
      0.000621      0.000004      0.000000
      0.000629      0.000004      0.000000
      0.000637      0.000004      0.000000
      0.000645      0.000004      0.000000
      0.000652      0.000004      0.000000
      0.000660      0.000004      0.000000
      0.000668      0.000004      0.000000
      0.000676      0.000004      0.000000
      0.000684      0.000004      0.000000
      0.000691      0.000004      0.000000
      0.000699      0.000004      0.000000
      0.000707      0.000004      0.000000
      0.000715      0.000004      0.000000
      0.000723      0.000004      0.000000
      0.000730      0.000004      0.000000
      0.000738      0.000004      0.000000
      0.000746      0.000004      0.000000
      0.000754      0.000004      0.000000
      0.000762      0.000004      0.000000
      0.000770      0.000004      0.000000
      0.000777      0.000004      0.000000
      0.000785      0.000004      0.000000
      0.000793      0.000004      0.000000
      0.000801      0.000004      0.000000
      0.000809      0.000004      0.000000
      0.000816      0.000004      0.000000
      0.000824      0.000004      0.000000
      0.000832      0.000004      0.000000
      0.000840      0.000004      0.000000
      0.000848      0.000004      0.000000
      0.000855      0.000004      0.000000
      0.000863      0.000004      0.000000
      0.000871      0.000004      0.000000
      0.000879      0.000004      0.000000
      0.000887      0.000004      0.000000
      0.000895      0.000004      0.000000
      0.000902      0.000004      0.000000
      0.000910      0.000004      0.000000
      0.000918      0.000004      0.000000
      0.000926      0.000004      0.000000
      0.000934      0.000004      0.000000
      0.000941      0.000004      0.000000
      0.000949      0.000004      0.000000
      0.000957      0.000004      0.000000
      0.000965      0.000004      0.000000
      0.000973      0.000004      0.000000
      0.000980      0.000004      0.000000
      0.000988      0.000004      0.000000
      0.000996      0.000004      0.000000
      0.000004      0.000012      0.000000
      0.000012      0.000012      0.000000
      0.000020      0.000012      0.000000
      0.000027      0.000012      0.000000
      0.000035      0.000012      0.000000
      0.000043      0.000012      0.000000
      0.000051      0.000012      0.000000
      0.000059      0.000012      0.000000
      0.000066      0.000012      0.000000
      0.000074      0.000012      0.000000
      0.000082      0.000012      0.000000
      0.000090      0.000012      0.000000
      0.000098      0.000012      0.000000
      0.000105      0.000012      0.000000
      0.000113      0.000012      0.000000
      0.000121      0.000012      0.000000
      0.000129      0.000012      0.000000
      0.000137      0.000012      0.000000
      0.000145      0.000012      0.000000
      0.000152      0.000012      0.000000
      0.000160      0.000012      0.000000
      0.000168      0.000012      0.000000
      0.000176      0.000012      0.000000
      0.000184      0.000012      0.000000
      0.000191      0.000012      0.000000
      0.000199      0.000012      0.000000
      0.000207      0.000012      0.000000
      0.000215      0.000012      0.000000
      0.000223      0.000012      0.000000
      0.000230      0.000012      0.000000
      0.000238      0.000012      0.000000
      0.000246      0.000012      0.000000
      0.000254      0.000012      0.000000
      0.000262      0.000012      0.000000
      0.000270      0.000012      0.000000
      0.000277      0.000012      0.000000
      0.000285      0.000012      0.000000
      0.000293      0.000012      0.000000
      0.000301      0.000012      0.000000
      0.000309      0.000012      0.000000
      0.000316      0.000012      0.000000
      0.000324      0.000012      0.000000
      0.000332      0.000012      0.000000
      0.000340      0.000012      0.000000
      0.000348      0.000012      0.000000
      0.000355      0.000012      0.000000
      0.000363      0.000012      0.000000
      0.000371      0.000012      0.000000
      0.000379      0.000012      0.000000
      0.000387      0.000012      0.000000
      0.000395      0.000012      0.000000
      0.000402      0.000012      0.000000
      0.000410      0.000012      0.000000
      0.000418      0.000012      0.000000
      0.000426      0.000012      0.000000
      0.000434      0.000012      0.000000
      0.000441      0.000012      0.000000
      0.000449      0.000012      0.000000
      0.000457      0.000012      0.000000
      0.000465      0.000012      0.000000
      0.000473      0.000012      0.000000
      0.000480      0.000012      0.000000
      0.000488      0.000012      0.000000
      0.000496      0.000012      0.000000
      0.000504      0.000012      0.000000
      0.000512      0.000012      0.000000
      0.000520      0.000012      0.000000
      0.000527      0.000012      0.000000
      0.000535      0.000012      0.000000
      0.000543      0.000012      0.000000
      0.000551      0.000012      0.000000
      0.000559      0.000012      0.000000
      0.000566      0.000012      0.000000
      0.000574      0.000012      0.000000
      0.000582      0.000012      0.000000
      0.000590      0.000012      0.000000
      0.000598      0.000012      0.000000
      0.000605      0.000012      0.000000
      0.000613      0.000012      0.000000
      0.000621      0.000012      0.000000
      0.000629      0.000012      0.000000
      0.000637      0.000012      0.000000
      0.000645      0.000012      0.000000
      0.000652      0.000012      0.000000
      0.000660      0.000012      0.000000
      0.000668      0.000012      0.000000
      0.000676      0.000012      0.000000
      0.000684      0.000012      0.000000
      0.000691      0.000012      0.000000
      0.000699      0.000012      0.000000
      0.000707      0.000012      0.000000
      0.000715      0.000012      0.000000
      0.000723      0.000012      0.000000
      0.000730      0.000012      0.000000
      0.000738      0.000012      0.000000
      0.000746      0.000012      0.000000
      0.000754      0.000012      0.000000
      0.000762      0.000012      0.000000
      0.000770      0.000012      0.000000
      0.000777      0.000012      0.000000
      0.000785      0.000012      0.000000
[...]
POINT_DATA 16384
SCALARS rhoe double
LOOKUP_TABLE default
 0.915290E-013
 0.913104E-013
 0.915105E-013
 0.915891E-013
 0.916956E-013
 0.917965E-013
 0.918980E-013
 0.919991E-013
 0.921000E-013
 0.922006E-013
 0.923009E-013
 0.924010E-013
 0.925007E-013
 0.926001E-013
 0.926992E-013
 0.927979E-013
 0.928962E-013
 0.929941E-013
 0.930916E-013
 0.931886E-013
 0.932850E-013
 0.933809E-013
 0.934762E-013
 0.935708E-013
 0.936648E-013
 0.937580E-013
 0.938503E-013
 0.939418E-013
 0.940324E-013
 0.941219E-013
 0.942104E-013
 0.942977E-013
 0.943838E-013
 0.944685E-013
 0.945519E-013
 0.946337E-013
 0.947140E-013
 0.947926E-013
 0.948694E-013
 0.949443E-013
 0.950173E-013
 0.950882E-013
 0.951570E-013
 0.952235E-013
 0.952876E-013
 0.953492E-013
 0.954083E-013
 0.954647E-013
 0.955184E-013
 0.955692E-013
 0.956171E-013
 0.956619E-013
 0.957037E-013
 0.957422E-013
 0.957775E-013
 0.958095E-013
 0.958381E-013
 0.958632E-013
 0.958848E-013
 0.959029E-013
 0.959175E-013
 0.959284E-013
 0.959357E-013
 0.959393E-013
 0.959393E-013
 0.959357E-013
 0.959284E-013
 0.959174E-013
 0.959029E-013
 0.958848E-013
 0.958632E-013
 0.958380E-013
 0.958094E-013
 0.957775E-013
 0.957422E-013
 0.957036E-013
 0.956619E-013
 0.956170E-013
 0.955691E-013
 0.955183E-013
 0.954646E-013
 0.954082E-013
 0.953491E-013
 0.952875E-013
 0.952234E-013
 0.951569E-013
 0.950881E-013
 0.950172E-013
 0.949442E-013
 0.948693E-013
 0.947925E-013
 0.947139E-013
 0.946336E-013
 0.945518E-013
 0.944684E-013
 0.943837E-013
 0.942976E-013
 0.942103E-013
 0.941218E-013
 0.940323E-013
 0.939417E-013
 0.938502E-013
 0.937579E-013
 0.936647E-013
 0.935707E-013
 0.934761E-013
 0.933808E-013
 0.932849E-013
 0.931885E-013
 0.930915E-013
 0.929940E-013
 0.928961E-013
 0.927978E-013
 0.926991E-013
 0.926000E-013
 0.925006E-013
 0.924009E-013
 0.923008E-013
 0.922005E-013
 0.920999E-013
 0.919990E-013
 0.918979E-013
 0.917964E-013
 0.916955E-013
 0.915891E-013
 0.915105E-013
 0.913104E-013
 0.915289E-013
 0.913104E-013
 0.908781E-013
 0.909724E-013
 0.908953E-013
 0.908611E-013
 0.908184E-013
 0.907773E-013
 0.907361E-013
 0.906950E-013
 0.906541E-013
 0.906132E-013
 0.905725E-013
 0.905320E-013
 0.904916E-013
 0.904513E-013
 0.904112E-013
 0.903712E-013
 0.903315E-013
 0.902919E-013
 0.902525E-013
 0.902134E-013
 0.901745E-013
 0.901358E-013
 0.900974E-013
 0.900593E-013
 0.900215E-013
 0.899841E-013
 0.899470E-013
 0.899103E-013
 0.898740E-013
 0.898382E-013
 0.898028E-013
 0.897680E-013
 0.897337E-013
 0.897000E-013
 0.896668E-013
 0.896344E-013
 0.896026E-013
 0.895715E-013
 0.895412E-013
 0.895117E-013
 0.894830E-013
 0.894552E-013
 0.894284E-013
 0.894024E-013
 0.893775E-013
 0.893537E-013
 0.893309E-013
 0.893092E-013
 0.892887E-013
 0.892694E-013
 0.892513E-013
 0.892344E-013
 0.892188E-013
 0.892046E-013
 0.891917E-013
 0.891802E-013
 0.891700E-013
 0.891613E-013
 0.891540E-013
 0.891481E-013
 0.891437E-013
 0.891408E-013
 0.891393E-013
 0.891393E-013
 0.891408E-013
 0.891437E-013
 0.891481E-013
 0.891540E-013
 0.891613E-013
 0.891701E-013
 0.891802E-013
 0.891917E-013
 0.892046E-013
 0.892189E-013
 0.892345E-013
 0.892513E-013
 0.892694E-013
 0.892888E-013
 0.893093E-013
 0.893310E-013
 0.893538E-013
 0.893776E-013
 0.894025E-013
 0.894284E-013
 0.894553E-013
 0.894831E-013
 0.895118E-013
 0.895413E-013
 0.895716E-013
 0.896027E-013
 0.896345E-013
 0.896669E-013
 0.897001E-013
 0.897338E-013
 0.897681E-013
 0.898030E-013
 0.898383E-013
 0.898741E-013
 0.899104E-013
 0.899471E-013
 0.899842E-013
 0.900216E-013
 0.900594E-013
 0.900975E-013
 0.901359E-013
 0.901746E-013
 0.902135E-013
 0.902526E-013
 0.902920E-013
 0.903316E-013
 0.903713E-013
 0.904113E-013
 0.904514E-013
 0.904916E-013
 0.905321E-013
 0.905726E-013
 0.906133E-013
 0.906541E-013
 0.906951E-013
 0.907362E-013
 0.907774E-013
 0.908185E-013
 0.908611E-013
 0.908954E-013
 0.909724E-013
 0.908781E-013
 0.913104E-013
 0.915105E-013
 0.909724E-013
 0.911769E-013
 0.911384E-013
 0.911608E-013
 0.911708E-013
 0.911829E-013
 0.911947E-013
 0.912065E-013
 0.912182E-013
 0.912299E-013
 0.912416E-013
 0.912532E-013
 0.912648E-013
 0.912764E-013
 0.912878E-013
 0.912993E-013
 0.913107E-013
 0.913220E-013
 0.913333E-013
 0.913445E-013
 0.913556E-013
 0.913667E-013
 0.913777E-013
 0.913886E-013
 0.913994E-013
 0.914101E-013
 0.914208E-013
 0.914313E-013
 0.914416E-013
 0.914519E-013
 0.914620E-013
 0.914720E-013
 0.914818E-013
 0.914915E-013
 0.915009E-013
 0.915102E-013
 0.915193E-013
 0.915282E-013
 0.915369E-013
 0.915453E-013
 0.915535E-013
 0.915615E-013
 0.915692E-013
 0.915766E-013
 0.915837E-013
 0.915905E-013
 0.915971E-013
 0.916033E-013
 0.916091E-013
 0.916147E-013
 0.916198E-013
 0.916247E-013
 0.916291E-013
 0.916332E-013
 0.916369E-013
 0.916402E-013
 0.916431E-013
 0.916456E-013
 0.916477E-013
 0.916494E-013
 0.916506E-013
 0.916515E-013
 0.916519E-013
 0.916519E-013
 0.916514E-013
 0.916506E-013
 0.916493E-013
 0.916477E-013
 0.916456E-013
 0.916431E-013
 0.916402E-013
 0.916369E-013
 0.916332E-013
 0.916291E-013
 0.916246E-013
 0.916198E-013
 0.916146E-013
 0.916091E-013
 0.916032E-013
 0.915970E-013
 0.915905E-013
 0.915837E-013
 0.915766E-013
 0.915691E-013
 0.915615E-013
 0.915535E-013
 0.915453E-013
 0.915369E-013
 0.915282E-013
 0.915193E-013
 0.915102E-013
 0.915009E-013
 0.914914E-013
 0.914818E-013
 0.914720E-013
 0.914620E-013
 0.914519E-013
 0.914416E-013
 0.914312E-013
 0.914207E-013
 0.914101E-013
 0.913994E-013
 0.913886E-013
 0.913777E-013
 0.913667E-013
 0.913556E-013
 0.913445E-013
 0.913333E-013
 0.913220E-013
 0.913106E-013
 0.912993E-013
 0.912878E-013
 0.912763E-013
 0.912648E-013
 0.912532E-013
 0.912416E-013
 0.912299E-013
 0.912182E-013
 0.912065E-013
 0.911947E-013
 0.911829E-013
 0.911708E-013
 0.911607E-013
 0.911384E-013
 0.911769E-013
 0.909724E-013
 0.915105E-013
 0.915891E-013
 0.908953E-013
 0.911384E-013
 0.910708E-013
 0.910817E-013
 0.910768E-013
 0.910745E-013
 0.910719E-013
 0.910693E-013
 0.910667E-013
 0.910641E-013
 0.910616E-013
 0.910590E-013
 0.910565E-013
 0.910539E-013
 0.910514E-013
 0.910489E-013
 0.910464E-013
 0.910439E-013
 0.910414E-013
 0.910390E-013
 0.910365E-013
 0.910341E-013
 0.910317E-013
 0.910293E-013
 0.910269E-013
 0.910246E-013
 0.910223E-013
 0.910200E-013
 0.910177E-013
 0.910155E-013
 0.910133E-013
 0.910111E-013
 0.910089E-013
 0.910068E-013
 0.910048E-013
 0.910027E-013
 0.910008E-013
 0.909988E-013
 0.909969E-013
 0.909951E-013
 0.909933E-013
 0.909916E-013
 0.909899E-013
 0.909883E-013
 0.909868E-013
 0.909853E-013
 0.909839E-013
 0.909825E-013
 0.909813E-013
 0.909801E-013
 0.909789E-013
 0.909779E-013
 0.909769E-013
 0.909760E-013
 0.909752E-013
 0.909745E-013
 0.909739E-013
 0.909734E-013
 0.909729E-013
 0.909725E-013
 0.909723E-013
 0.909721E-013
 0.909720E-013
 0.909720E-013
 0.909721E-013
 0.909723E-013
 0.909725E-013
 0.909729E-013
 0.909734E-013
 0.909739E-013
 0.909745E-013
 0.909752E-013
 0.909760E-013
 0.909769E-013
 0.909779E-013
 0.909789E-013
 0.909801E-013
 0.909813E-013
 0.909825E-013
 0.909839E-013
 0.909853E-013
 0.909868E-013
 0.909883E-013
 0.909899E-013
 0.909916E-013
 0.909933E-013
 0.909951E-013
 0.909970E-013
 0.909988E-013
 0.910008E-013
 0.910028E-013
 0.910048E-013
 0.910069E-013
 0.910090E-013
 0.910111E-013
 0.910133E-013
 0.910155E-013
 0.910177E-013
 0.910200E-013
 0.910223E-013
 0.910246E-013
 0.910270E-013
 0.910293E-013
 0.910317E-013
 0.910341E-013
 0.910365E-013
 0.910390E-013
 0.910414E-013
 0.910439E-013
 0.910464E-013
 0.910489E-013
 0.910514E-013
 0.910539E-013
 0.910565E-013
 0.910590E-013
 0.910616E-013
 0.910641E-013
 0.910667E-013
 0.910693E-013
 0.910719E-013
 0.910745E-013
 0.910768E-013
 0.910817E-013
 0.910708E-013
 0.911384E-013
 0.908954E-013
 0.915891E-013
 0.916956E-013
 0.908611E-013
 0.911608E-013
 0.910817E-013
 0.910988E-013
 0.910964E-013
 0.910973E-013
 0.910977E-013
 0.910982E-013
 0.910986E-013
 0.910991E-013
 0.910995E-013
 0.911000E-013
 0.911005E-013
 0.911009E-013
 0.911013E-013
 0.911018E-013
 0.911022E-013
 0.911027E-013
 0.911031E-013
 0.911036E-013
 0.911040E-013
 0.911044E-013
 0.911049E-013
 0.911053E-013
 0.911057E-013
 0.911061E-013
 0.911065E-013
 0.911070E-013
 0.911074E-013
 0.911078E-013
 0.911082E-013
 0.911086E-013
 0.911089E-013
 0.911093E-013
 0.911097E-013
 0.911101E-013
 0.911104E-013
 0.911108E-013
 0.911111E-013
 0.911115E-013
 0.911118E-013
 0.911121E-013
 0.911124E-013
 0.911127E-013
 0.911130E-013
 0.911133E-013
 0.911135E-013
 0.911138E-013
 0.911140E-013
 0.911142E-013
 0.911144E-013
 0.911146E-013
 0.911148E-013
 0.911150E-013
 0.911151E-013
 0.911153E-013
 0.911154E-013
 0.911155E-013
 0.911156E-013
 0.911156E-013
 0.911157E-013
 0.911157E-013
 0.911157E-013
 0.911157E-013
 0.911157E-013
 0.911157E-013
 0.911156E-013
 0.911156E-013
 0.911155E-013
 0.911154E-013
 0.911153E-013
 0.911151E-013
 0.911150E-013
 0.911148E-013
 0.911146E-013
 0.911144E-013
 0.911142E-013
 0.911140E-013
 0.911138E-013
 0.911135E-013
 0.911133E-013
 0.911130E-013
 0.911127E-013
 0.911124E-013
 0.911121E-013
 0.911118E-013
 0.911115E-013
 0.911111E-013
 0.911108E-013
 0.911104E-013
 0.911101E-013
 0.911097E-013
 0.911093E-013
 0.911089E-013
 0.911086E-013
 0.911082E-013
 0.911078E-013
 0.911074E-013
 0.911070E-013
 0.911065E-013
 0.911061E-013
 0.911057E-013
 0.911053E-013
 0.911049E-013
 0.911044E-013
 0.911040E-013
 0.911036E-013
 0.911031E-013
 0.911027E-013
 0.911022E-013
 0.911018E-013
 0.911014E-013
 0.911009E-013
 0.911005E-013
 0.911000E-013
 0.910995E-013
 0.910991E-013
 0.910986E-013
 0.910982E-013
 0.910977E-013
 0.910973E-013
 0.910964E-013
 0.910988E-013
 0.910817E-013
 0.911607E-013
 0.908611E-013
 0.916955E-013
 0.917965E-013
 0.908184E-013
 0.911708E-013
 0.910768E-013
 0.910964E-013
 0.910929E-013
 0.910934E-013
 0.910932E-013
 0.910932E-013
 0.910931E-013
 0.910930E-013
 0.910930E-013
 0.910929E-013
 0.910928E-013
 0.910928E-013
 0.910927E-013
 0.910926E-013
 0.910926E-013
 0.910925E-013
 0.910924E-013
 0.910924E-013
 0.910923E-013
 0.910923E-013
 0.910922E-013
 0.910921E-013
 0.910921E-013
 0.910920E-013
 0.910920E-013
 0.910919E-013
 0.910918E-013
 0.910918E-013
 0.910917E-013
 0.910917E-013
 0.910916E-013
 0.910916E-013
 0.910915E-013
 0.910915E-013
 0.910915E-013
 0.910914E-013
 0.910914E-013
 0.910913E-013
 0.910913E-013
 0.910913E-013
 0.910912E-013
 0.910912E-013
 0.910912E-013
 0.910911E-013
 0.910911E-013
 0.910911E-013
 0.910911E-013
 0.910910E-013
 0.910910E-013
 0.910910E-013
 0.910910E-013
 0.910910E-013
 0.910910E-013
 0.910910E-013
 0.910909E-013
 0.910909E-013
 0.910909E-013
 0.910909E-013
 0.910909E-013
 0.910909E-013
 0.910909E-013
 0.910909E-013
 0.910909E-013
 0.910909E-013
 0.910909E-013
 0.910909E-013
 0.910909E-013
 0.910909E-013
 0.910910E-013
 0.910910E-013
 0.910910E-013
 0.910910E-013
 0.910910E-013
 0.910910E-013
 0.910910E-013
 0.910911E-013
 0.910911E-013
 0.910911E-013
 0.910911E-013
 0.910912E-013
 0.910912E-013
 0.910912E-013
 0.910913E-013
 0.910913E-013
 0.910913E-013
 0.910914E-013
 0.910914E-013
 0.910915E-013
 0.910915E-013
 0.910915E-013
 0.910916E-013
 0.910916E-013
 0.910917E-013
 0.910917E-013
 0.910918E-013
 0.910918E-013
 0.910919E-013
 0.910920E-013
 0.910920E-013
 0.910921E-013
 0.910921E-013
 0.910922E-013
 0.910923E-013
 0.910923E-013
 0.910924E-013
 0.910924E-013
 0.910925E-013
 0.910926E-013
 0.910926E-013
 0.910927E-013
 0.910928E-013
 0.910928E-013
 0.910929E-013
 0.910930E-013
 0.910930E-013
 0.910931E-013
 0.910932E-013
 0.910932E-013
 0.910934E-013
 0.910930E-013
 0.910964E-013
 0.910768E-013
 0.911708E-013
 0.908185E-013
 0.917964E-013
 0.918980E-013
 0.907773E-013
 0.911829E-013
 0.910745E-013
 0.910973E-013
 0.910934E-013
 0.910940E-013
 0.910939E-013
 0.910939E-013
 0.910939E-013
 0.910939E-013
 0.910939E-013
 0.910939E-013
 0.910940E-013
 0.910940E-013
 0.910940E-013
 0.910940E-013
 0.910940E-013
 0.910940E-013
 0.910940E-013
 0.910940E-013
 0.910940E-013
 0.910940E-013
 0.910940E-013
 0.910941E-013
 0.910941E-013
 0.910941E-013
 0.910941E-013
 0.910941E-013
 0.910941E-013
 0.910941E-013
 0.910942E-013
 0.910942E-013
 0.910942E-013
 0.910942E-013
 0.910942E-013
 0.910942E-013
 0.910943E-013
 0.910943E-013
 0.910943E-013
 0.910943E-013
 0.910943E-013
 0.910943E-013
 0.910944E-013
 0.910944E-013
 0.910944E-013
 0.910944E-013
 0.910944E-013
 0.910945E-013
 0.910945E-013
 0.910945E-013
 0.910945E-013
 0.910945E-013
 0.910945E-013
 0.910946E-013
 0.910946E-013
 0.910946E-013
 0.910946E-013
 0.910946E-013
 0.910946E-013
 0.910946E-013
 0.910946E-013
 0.910946E-013
 0.910946E-013
 0.910946E-013
 0.910946E-013
 0.910946E-013
 0.910946E-013
 0.910946E-013
 0.910946E-013
 0.910946E-013
 0.910946E-013
 0.910946E-013
 0.910946E-013
 0.910945E-013
 0.910945E-013
 0.910945E-013
 0.910945E-013
 0.910945E-013
 0.910945E-013
 0.910944E-013
 0.910944E-013
 0.910944E-013
 0.910944E-013
 0.910944E-013
 0.910943E-013
 0.910943E-013
 0.910943E-013
 0.910943E-013
 0.910943E-013
 0.910943E-013
 0.910942E-013
 0.910942E-013
 0.910942E-013
 0.910942E-013
 0.910942E-013
 0.910942E-013
 0.910941E-013
 0.910941E-013
 0.910941E-013
 0.910941E-013
 0.910941E-013
 0.910941E-013
 0.910941E-013
 0.910941E-013
 0.910940E-013
 0.910940E-013
 0.910940E-013
 0.910940E-013
 0.910940E-013
 0.910940E-013
 0.910940E-013
 0.910940E-013
 0.910940E-013
 0.910940E-013
 0.910939E-013
 0.910939E-013
 0.910939E-013
 0.910939E-013
 0.910939E-013
 0.910939E-013
 0.910940E-013
 0.910934E-013
 0.910973E-013
 0.910745E-013
 0.911829E-013
 0.907774E-013
 0.918979E-013
 0.919991E-013
 0.907361E-013
 0.911947E-013
 0.910719E-013
 0.910977E-013
 0.910932E-013
 0.910939E-013
 0.910938E-013
 0.910938E-013
 0.910938E-013
 0.910938E-013
 0.910938E-013
 0.910938E-013
 0.910938E-013
 0.910938E-013
 0.910938E-013
 0.910938E-013
 0.910938E-013
 0.910938E-013
 0.910938E-013
 0.910938E-013
 0.910938E-013
 0.910938E-013
 0.910938E-013
 0.910938E-013
 0.910938E-013
 0.910938E-013
 0.910938E-013
 0.910938E-013
 0.910938E-013
 0.910939E-013
 0.910939E-013
 0.910939E-013
 0.910939E-013
 0.910939E-013
 0.910939E-013
 0.910939E-013
 0.910939E-013
 0.910939E-013
 0.910939E-013
 0.910940E-013
 0.910940E-013
 0.910940E-013
 0.910940E-013
 0.910940E-013
 0.910940E-013
 0.910941E-013
 0.910941E-013
 0.910941E-013
 0.910941E-013
 0.910941E-013
 0.910941E-013
 0.910941E-013
 0.910942E-013
 0.910942E-013
 0.910942E-013
 0.910942E-013
 0.910942E-013
 0.910942E-013
 0.910942E-013
 0.910942E-013
 0.910942E-013
 0.910942E-013
 0.910942E-013
 0.910942E-013
 0.910942E-013
 0.910942E-013
 0.910942E-013
 0.910942E-013
 0.910942E-013
 0.910942E-013
 0.910942E-013
 0.910942E-013
 0.910942E-013
 0.910942E-013
 0.910942E-013
 0.910941E-013
 0.910941E-013
 0.910941E-013
 0.910941E-013
 0.910941E-013
 0.910941E-013
 0.910940E-013
 0.910940E-013
 0.910940E-013
 0.910940E-013
 0.910940E-013
 0.910940E-013
 0.910940E-013
 0.910939E-013
 0.910939E-013
 0.910939E-013
 0.910939E-013
 0.910939E-013
 0.910939E-013
 0.910939E-013
 0.910939E-013
 0.910939E-013
 0.910939E-013
 0.910938E-013
 0.910938E-013
 0.910938E-013
 0.910938E-013
 0.910938E-013
 0.910938E-013
 0.910938E-013
 0.910938E-013
 0.910938E-013
 0.910938E-013
 0.910938E-013
 0.910938E-013
 0.910938E-013
 0.910938E-013
 0.910938E-013
 0.910938E-013
 0.910938E-013
 0.910938E-013
 0.910938E-013
 0.910938E-013
 0.910938E-013
 0.910938E-013
 0.910939E-013
 0.910932E-013
 0.910977E-013
 0.910719E-013
 0.911947E-013
 0.907362E-013
 0.919990E-013
 0.921000E-013
 0.906950E-013
 0.912065E-013
 0.910693E-013
 0.910982E-013
 0.910932E-013
 0.910939E-013
 0.910938E-013
 0.910938E-013
 0.910938E-013
 0.910938E-013
 0.910938E-013
 0.910938E-013
 0.910938E-013
 0.910938E-013
 0.910938E-013
 0.910938E-013
 0.910938E-013
 0.910938E-013
 0.910938E-013
 0.910938E-013
 0.910938E-013
 0.910938E-013
 0.910938E-013
 0.910939E-013
 0.910939E-013
 0.910939E-013
 0.910939E-013
 0.910939E-013
 0.910939E-013
 0.910939E-013
 0.910939E-013
 0.910939E-013
 0.910939E-013
 0.910939E-013
 0.910940E-013
 0.910940E-013
 0.910940E-013
 0.910940E-013
 0.910940E-013
 0.910940E-013
 0.910941E-013
 0.910941E-013
 0.910941E-013
 0.910941E-013
 0.910941E-013
 0.910942E-013
 0.910942E-013
 0.910942E-013
 0.910942E-013
 0.910942E-013
 0.910943E-013
 0.910943E-013
 0.910943E-013
 0.910943E-013
 0.910943E-013
 0.910943E-013
 0.910943E-013
 0.910944E-013
 0.910944E-013
 0.910944E-013
 0.910944E-013
 0.910944E-013
 0.910944E-013
 0.910944E-013
 0.910944E-013
 0.910944E-013
 0.910944E-013
 0.910944E-013
 0.910944E-013
 0.910943E-013
 0.910943E-013
 0.910943E-013
 0.910943E-013
 0.910943E-013
 0.910943E-013
 0.910943E-013
 0.910942E-013
 0.910942E-013
 0.910942E-013
 0.910942E-013
 0.910942E-013
 0.910941E-013
 0.910941E-013
 0.910941E-013
 0.910941E-013
 0.910941E-013
 0.910940E-013
 0.910940E-013
 0.910940E-013
 0.910940E-013
 0.910940E-013
 0.910940E-013
 0.910940E-013
 0.910939E-013
 0.910939E-013
 0.910939E-013
 0.910939E-013
 0.910939E-013
 0.910939E-013
 0.910939E-013
 0.910939E-013
 0.910939E-013
 0.910939E-013
 0.910939E-013
 0.910939E-013
 0.910938E-013
 0.910938E-013
 0.910938E-013
 0.910938E-013
 0.910938E-013
 0.910938E-013
 0.910938E-013
 0.910938E-013
 0.910938E-013
 0.910938E-013
 0.910938E-013
 0.910938E-013
 0.910938E-013
 0.910938E-013
 0.910938E-013
 0.910939E-013
 0.910932E-013
 0.910982E-013
 0.910693E-013
 0.912065E-013
 0.906951E-013
 0.920999E-013
 0.922006E-013
 0.906541E-013
 0.912182E-013
 0.910667E-013
 0.910986E-013
 0.910931E-013
 0.910939E-013
 0.910938E-013
 0.910938E-013
 0.910938E-013
 0.910938E-013
 0.910938E-013
 0.910938E-013
 0.910938E-013
 0.910938E-013
 0.910938E-013
 0.910938E-013
 0.910938E-013
 0.910938E-013
 0.910938E-013
 0.910938E-013
 0.910938E-013
 0.910938E-013
 0.910939E-013
 0.910939E-013
 0.910939E-013
 0.910939E-013
 0.910939E-013
 0.910939E-013
 0.910939E-013
 0.910939E-013
 0.910939E-013
 0.910939E-013
 0.910940E-013
 0.910940E-013
 0.910940E-013
 0.910940E-013
 0.910940E-013
 0.910940E-013
 0.910941E-013
 0.910941E-013
 0.910941E-013
 0.910941E-013
 0.910941E-013
 0.910942E-013
 0.910942E-013
 0.910942E-013
 0.910942E-013
 0.910943E-013
 0.910943E-013
 0.910943E-013
 0.910943E-013
 0.910944E-013
 0.910944E-013
 0.910944E-013
 0.910944E-013
 0.910944E-013
 0.910944E-013
 0.910944E-013
 0.910945E-013
 0.910945E-013
 0.910945E-013
 0.910945E-013
 0.910945E-013
 0.910945E-013
 0.910945E-013
 0.910945E-013
 0.910945E-013
 0.910945E-013
 0.910944E-013
 0.910944E-013
 0.910944E-013
 0.910944E-013
 0.910944E-013
 0.910944E-013
 0.910944E-013
 0.910943E-013
 0.910943E-013
 0.910943E-013
 0.910943E-013
 0.910942E-013
 0.910942E-013
 0.910942E-013
 0.910942E-013
 0.910942E-013
 0.910941E-013
 0.910941E-013
 0.910941E-013
 0.910941E-013
 0.910940E-013
 0.910940E-013
 0.910940E-013
 0.910940E-013
 0.910940E-013
 0.910940E-013
 0.910939E-013
 0.910939E-013
 0.910939E-013
 0.910939E-013
 0.910939E-013
 0.910939E-013
 0.910939E-013
 0.910939E-013
 0.910939E-013
 0.910939E-013
 0.910939E-013
 0.910938E-013
 0.910938E-013
 0.910938E-013
 0.910938E-013
 0.910938E-013
 0.910938E-013
 0.910938E-013
 0.910938E-013
 0.910938E-013
 0.910938E-013
 0.910938E-013
 0.910938E-013
 0.910938E-013
 0.910938E-013
 0.910938E-013
 0.910939E-013
 0.910931E-013
 0.910986E-013
 0.910667E-013
 0.912182E-013
 0.906542E-013
 0.922005E-013
 0.923009E-013
 0.906132E-013
 0.912299E-013
 0.910641E-013
 0.910991E-013
 0.910930E-013
 0.910939E-013
 0.910938E-013
 0.910938E-013
 0.910938E-013
 0.910938E-013
 0.910938E-013
 0.910938E-013
 0.910938E-013
 0.910938E-013
 0.910938E-013
 0.910938E-013
 0.910938E-013
 0.910938E-013
 0.910938E-013
 0.910938E-013
 0.910938E-013
 0.910939E-013
 0.910939E-013
 0.910939E-013
 0.910939E-013
 0.910939E-013
 0.910939E-013
 0.910939E-013
 0.910939E-013
 0.910939E-013
 0.910939E-013
 0.910940E-013
 0.910940E-013
 0.910940E-013
 0.910940E-013
 0.910940E-013
 0.910941E-013
 0.910941E-013
 0.910941E-013
 0.910941E-013
 0.910942E-013
 0.910942E-013
 0.910942E-013
 0.910942E-013
 0.910943E-013
 0.910943E-013
 0.910943E-013
 0.910943E-013