# vtk DataFile Version 3.0
Solution data
ASCII
DATASET STRUCTURED_GRID
DIMENSIONS 128 128 1
POINTS 16384  double
      0.000004      0.000004      0.000000
      0.000012      0.000004      0.000000
      0.000020      0.000004      0.000000
      0.000027      0.000004      0.000000
      0.000035      0.000004      0.000000
      0.000043      0.000004      0.000000
      0.000051      0.000004      0.000000
      0.000059      0.000004      0.000000
      0.000066      0.000004      0.000000
      0.000074      0.000004      0.000000
      0.000082      0.000004      0.000000
      0.000090      0.000004      0.000000
      0.000098      0.000004      0.000000
      0.000105      0.000004      0.000000
      0.000113      0.000004      0.000000
      0.000121      0.000004      0.000000
      0.000129      0.000004      0.000000
      0.000137      0.000004      0.000000
      0.000145      0.000004      0.000000
      0.000152      0.000004      0.000000
      0.000160      0.000004      0.000000
      0.000168      0.000004      0.000000
      0.000176      0.000004      0.000000
      0.000184      0.000004      0.000000
      0.000191      0.000004      0.000000
      0.000199      0.000004      0.000000
      0.000207      0.000004      0.000000
      0.000215      0.000004      0.000000
      0.000223      0.000004      0.000000
      0.000230      0.000004      0.000000
      0.000238      0.000004      0.000000
      0.000246      0.000004      0.000000
      0.000254      0.000004      0.000000
      0.000262      0.000004      0.000000
      0.000270      0.000004      0.000000
      0.000277      0.000004      0.000000
      0.000285      0.000004      0.000000
      0.000293      0.000004      0.000000
      0.000301      0.000004      0.000000
      0.000309      0.000004      0.000000
      0.000316      0.000004      0.000000
      0.000324      0.000004      0.000000
      0.000332      0.000004      0.000000
      0.000340      0.000004      0.000000
      0.000348      0.000004      0.000000
      0.000355      0.000004      0.000000
      0.000363      0.000004      0.000000
      0.000371      0.000004      0.000000
      0.000379      0.000004      0.000000
      0.000387      0.000004      0.000000
      0.000395      0.000004      0.000000
      0.000402      0.000004      0.000000
      0.000410      0.000004      0.000000
      0.000418      0.000004      0.000000
      0.000426      0.000004      0.000000
      0.000434      0.000004      0.000000
      0.000441      0.000004      0.000000
      0.000449      0.000004      0.000000
      0.000457      0.000004      0.000000
      0.000465      0.000004      0.000000
      0.000473      0.000004      0.000000
      0.000480      0.000004      0.000000
      0.000488      0.000004      0.000000
      0.000496      0.000004      0.000000
      0.000504      0.000004      0.000000
      0.000512      0.000004      0.000000
      0.000520      0.000004      0.000000
      0.000527      0.000004      0.000000
      0.000535      0.000004      0.000000
      0.000543      0.000004      0.000000
      0.000551      0.000004      0.000000
      0.000559      0.000004      0.000000
      0.000566      0.000004      0.000000
      0.000574      0.000004      0.000000
      0.000582      0.000004      0.000000
      0.000590      0.000004      0.000000
      0.000598      0.000004      0.000000
      0.000605      0.000004      0.000000
      0.000613      0.000004      0.000000
      0.000621      0.000004      0.000000
      0.000629      0.000004      0.000000
      0.000637      0.000004      0.000000
      0.000645      0.000004      0.000000
      0.000652      0.000004      0.000000
      0.000660      0.000004      0.000000
      0.000668      0.000004      0.000000
      0.000676      0.000004      0.000000
      0.000684      0.000004      0.000000
      0.000691      0.000004      0.000000
      0.000699      0.000004      0.000000
      0.000707      0.000004      0.000000
      0.000715      0.000004      0.000000
      0.000723      0.000004      0.000000
      0.000730      0.000004      0.000000
      0.000738      0.000004      0.000000
      0.000746      0.000004      0.000000
      0.000754      0.000004      0.000000
      0.000762      0.000004      0.000000
      0.000770      0.000004      0.000000
      0.000777      0.000004      0.000000
      0.000785      0.000004      0.000000
      0.000793      0.000004      0.000000
      0.000801      0.000004      0.000000
      0.000809      0.000004      0.000000
      0.000816      0.000004      0.000000
      0.000824      0.000004      0.000000
      0.000832      0.000004      0.000000
      0.000840      0.000004      0.000000
      0.000848      0.000004      0.000000
      0.000855      0.000004      0.000000
      0.000863      0.000004      0.000000
      0.000871      0.000004      0.000000
      0.000879      0.000004      0.000000
      0.000887      0.000004      0.000000
      0.000895      0.000004      0.000000
      0.000902      0.000004      0.000000
      0.000910      0.000004      0.000000
      0.000918      0.000004      0.000000
      0.000926      0.000004      0.000000
      0.000934      0.000004      0.000000
      0.000941      0.000004      0.000000
      0.000949      0.000004      0.000000
      0.000957      0.000004      0.000000
      0.000965      0.000004      0.000000
      0.000973      0.000004      0.000000
      0.000980      0.000004      0.000000
      0.000988      0.000004      0.000000
      0.000996      0.000004      0.000000
      0.000004      0.000012      0.000000
      0.000012      0.000012      0.000000
      0.000020      0.000012      0.000000
      0.000027      0.000012      0.000000
      0.000035      0.000012      0.000000
      0.000043      0.000012      0.000000
      0.000051      0.000012      0.000000
      0.000059      0.000012      0.000000
      0.000066      0.000012      0.000000
      0.000074      0.000012      0.000000
      0.000082      0.000012      0.000000
      0.000090      0.000012      0.000000
      0.000098      0.000012      0.000000
      0.000105      0.000012      0.000000
      0.000113      0.000012      0.000000
      0.000121      0.000012      0.000000
      0.000129      0.000012      0.000000
      0.000137      0.000012      0.000000
      0.000145      0.000012      0.000000
      0.000152      0.000012      0.000000
      0.000160      0.000012      0.000000
      0.000168      0.000012      0.000000
      0.000176      0.000012      0.000000
      0.000184      0.000012      0.000000
      0.000191      0.000012      0.000000
      0.000199      0.000012      0.000000
      0.000207      0.000012      0.000000
      0.000215      0.000012      0.000000
      0.000223      0.000012      0.000000
      0.000230      0.000012      0.000000
      0.000238      0.000012      0.000000
      0.000246      0.000012      0.000000
      0.000254      0.000012      0.000000
      0.000262      0.000012      0.000000
      0.000270      0.000012      0.000000
      0.000277      0.000012      0.000000
      0.000285      0.000012      0.000000
      0.000293      0.000012      0.000000
      0.000301      0.000012      0.000000
      0.000309      0.000012      0.000000
      0.000316      0.000012      0.000000
      0.000324      0.000012      0.000000
      0.000332      0.000012      0.000000
      0.000340      0.000012      0.000000
      0.000348      0.000012      0.000000
      0.000355      0.000012      0.000000
      0.000363      0.000012      0.000000
      0.000371      0.000012      0.000000
      0.000379      0.000012      0.000000
      0.000387      0.000012      0.000000
      0.000395      0.000012      0.000000
      0.000402      0.000012      0.000000
      0.000410      0.000012      0.000000
      0.000418      0.000012      0.000000
      0.000426      0.000012      0.000000
      0.000434      0.000012      0.000000
      0.000441      0.000012      0.000000
      0.000449      0.000012      0.000000
      0.000457      0.000012      0.000000
      0.000465      0.000012      0.000000
      0.000473      0.000012      0.000000
      0.000480      0.000012      0.000000
      0.000488      0.000012      0.000000
      0.000496      0.000012      0.000000
      0.000504      0.000012      0.000000
      0.000512      0.000012      0.000000
      0.000520      0.000012      0.000000
      0.000527      0.000012      0.000000
      0.000535      0.000012      0.000000
      0.000543      0.000012      0.000000
      0.000551      0.000012      0.000000
      0.000559      0.000012      0.000000
      0.000566      0.000012      0.000000
      0.000574      0.000012      0.000000
      0.000582      0.000012      0.000000
      0.000590      0.000012      0.000000
      0.000598      0.000012      0.000000
      0.000605      0.000012      0.000000
      0.000613      0.000012      0.000000
      0.000621      0.000012      0.000000
      0.000629      0.000012      0.000000
      0.000637      0.000012      0.000000
      0.000645      0.000012      0.000000
      0.000652      0.000012      0.000000
      0.000660      0.000012      0.000000
      0.000668      0.000012      0.000000
      0.000676      0.000012      0.000000
      0.000684      0.000012      0.000000
      0.000691      0.000012      0.000000
      0.000699      0.000012      0.000000
      0.000707      0.000012      0.000000
      0.000715      0.000012      0.000000
      0.000723      0.000012      0.000000
      0.000730      0.000012      0.000000
      0.000738      0.000012      0.000000
      0.000746      0.000012      0.000000
      0.000754      0.000012      0.000000
      0.000762      0.000012      0.000000
      0.000770      0.000012      0.000000
      0.000777      0.000012      0.000000
      0.000785      0.000012      0.000000
[...]
POINT_DATA 16384
SCALARS rhoe double
LOOKUP_TABLE default
 0.915956E-013
 0.912802E-013
 0.915309E-013
 0.915772E-013
 0.916844E-013
 0.917759E-013
 0.918705E-013
 0.919642E-013
 0.920578E-013
 0.921511E-013
 0.922441E-013
 0.923368E-013
 0.924292E-013
 0.925213E-013
 0.926131E-013
 0.927044E-013
 0.927954E-013
 0.928860E-013
 0.929761E-013
 0.930658E-013
 0.931549E-013
 0.932435E-013
 0.933316E-013
 0.934189E-013
 0.935056E-013
 0.935916E-013
 0.936768E-013
 0.937612E-013
 0.938447E-013
 0.939272E-013
 0.940087E-013
 0.940891E-013
 0.941683E-013
 0.942463E-013
 0.943229E-013
 0.943982E-013
 0.944720E-013
 0.945442E-013
 0.946147E-013
 0.946836E-013
 0.947506E-013
 0.948156E-013
 0.948787E-013
 0.949397E-013
 0.949985E-013
 0.950550E-013
 0.951091E-013
 0.951608E-013
 0.952100E-013
 0.952565E-013
 0.953003E-013
 0.953414E-013
 0.953796E-013
 0.954148E-013
 0.954471E-013
 0.954764E-013
 0.955025E-013
 0.955255E-013
 0.955453E-013
 0.955618E-013
 0.955751E-013
 0.955851E-013
 0.955918E-013
 0.955951E-013
 0.955951E-013
 0.955918E-013
 0.955851E-013
 0.955751E-013
 0.955618E-013
 0.955453E-013
 0.955255E-013
 0.955025E-013
 0.954764E-013
 0.954471E-013
 0.954148E-013
 0.953796E-013
 0.953414E-013
 0.953003E-013
 0.952565E-013
 0.952100E-013
 0.951608E-013
 0.951091E-013
 0.950550E-013
 0.949985E-013
 0.949397E-013
 0.948787E-013
 0.948156E-013
 0.947506E-013
 0.946836E-013
 0.946147E-013
 0.945442E-013
 0.944720E-013
 0.943982E-013
 0.943229E-013
 0.942463E-013
 0.941683E-013
 0.940891E-013
 0.940087E-013
 0.939272E-013
 0.938447E-013
 0.937612E-013
 0.936768E-013
 0.935916E-013
 0.935056E-013
 0.934189E-013
 0.933316E-013
 0.932435E-013
 0.931549E-013
 0.930658E-013
 0.929761E-013
 0.928860E-013
 0.927954E-013
 0.927044E-013
 0.926130E-013
 0.925213E-013
 0.924292E-013
 0.923368E-013
 0.922441E-013
 0.921511E-013
 0.920578E-013
 0.919642E-013
 0.918705E-013
 0.917759E-013
 0.916843E-013
 0.915772E-013
 0.915308E-013
 0.912802E-013
 0.915956E-013
 0.912802E-013
 0.908148E-013
 0.909511E-013
 0.908365E-013
 0.908047E-013
 0.907507E-013
 0.907020E-013
 0.906524E-013
 0.906030E-013
 0.905539E-013
 0.905048E-013
 0.904559E-013
 0.904072E-013
 0.903587E-013
 0.903103E-013
 0.902622E-013
 0.902142E-013
 0.901665E-013
 0.901190E-013
 0.900717E-013
 0.900247E-013
 0.899780E-013
 0.899316E-013
 0.898856E-013
 0.898399E-013
 0.897946E-013
 0.897497E-013
 0.897052E-013
 0.896612E-013
 0.896177E-013
 0.895748E-013
 0.895324E-013
 0.894907E-013
 0.894495E-013
 0.894091E-013
 0.893695E-013
 0.893306E-013
 0.892925E-013
 0.892553E-013
 0.892190E-013
 0.891837E-013
 0.891494E-013
 0.891161E-013
 0.890839E-013
 0.890529E-013
 0.890231E-013
 0.889946E-013
 0.889673E-013
 0.889414E-013
 0.889169E-013
 0.888937E-013
 0.888721E-013
 0.888519E-013
 0.888333E-013
 0.888163E-013
 0.888009E-013
 0.887871E-013
 0.887749E-013
 0.887645E-013
 0.887558E-013
 0.887488E-013
 0.887435E-013
 0.887400E-013
 0.887382E-013
 0.887382E-013
 0.887400E-013
 0.887435E-013
 0.887488E-013
 0.887558E-013
 0.887645E-013
 0.887750E-013
 0.887871E-013
 0.888009E-013
 0.888163E-013
 0.888334E-013
 0.888520E-013
 0.888721E-013
 0.888938E-013
 0.889169E-013
 0.889414E-013
 0.889674E-013
 0.889946E-013
 0.890232E-013
 0.890530E-013
 0.890840E-013
 0.891162E-013
 0.891494E-013
 0.891837E-013
 0.892191E-013
 0.892553E-013
 0.892926E-013
 0.893306E-013
 0.893695E-013
 0.894092E-013
 0.894496E-013
 0.894907E-013
 0.895325E-013
 0.895749E-013
 0.896178E-013
 0.896613E-013
 0.897053E-013
 0.897497E-013
 0.897947E-013
 0.898400E-013
 0.898857E-013
 0.899317E-013
 0.899781E-013
 0.900248E-013
 0.900718E-013
 0.901190E-013
 0.901665E-013
 0.902143E-013
 0.902622E-013
 0.903104E-013
 0.903587E-013
 0.904073E-013
 0.904560E-013
 0.905049E-013
 0.905539E-013
 0.906031E-013
 0.906524E-013
 0.907020E-013
 0.907508E-013
 0.908047E-013
 0.908365E-013
 0.909511E-013
 0.908148E-013
 0.912802E-013
 0.915309E-013
 0.909511E-013
 0.912356E-013
 0.911631E-013
 0.912082E-013
 0.912214E-013
 0.912418E-013
 0.912607E-013
 0.912798E-013
 0.912988E-013
 0.913177E-013
 0.913366E-013
 0.913554E-013
 0.913742E-013
 0.913929E-013
 0.914115E-013
 0.914300E-013
 0.914484E-013
 0.914668E-013
 0.914850E-013
 0.915032E-013
 0.915212E-013
 0.915391E-013
 0.915569E-013
 0.915745E-013
 0.915920E-013
 0.916093E-013
 0.916265E-013
 0.916435E-013
 0.916603E-013
 0.916768E-013
 0.916932E-013
 0.917093E-013
 0.917252E-013
 0.917408E-013
 0.917561E-013
 0.917711E-013
 0.917858E-013
 0.918001E-013
 0.918141E-013
 0.918277E-013
 0.918410E-013
 0.918538E-013
 0.918662E-013
 0.918782E-013
 0.918897E-013
 0.919007E-013
 0.919112E-013
 0.919212E-013
 0.919307E-013
 0.919396E-013
 0.919479E-013
 0.919557E-013
 0.919629E-013
 0.919694E-013
 0.919754E-013
 0.919807E-013
 0.919854E-013
 0.919894E-013
 0.919928E-013
 0.919955E-013
 0.919975E-013
 0.919989E-013
 0.919995E-013
 0.919995E-013
 0.919989E-013
 0.919975E-013
 0.919955E-013
 0.919928E-013
 0.919894E-013
 0.919854E-013
 0.919807E-013
 0.919754E-013
 0.919694E-013
 0.919629E-013
 0.919557E-013
 0.919479E-013
 0.919396E-013
 0.919306E-013
 0.919212E-013
 0.919112E-013
 0.919006E-013
 0.918896E-013
 0.918781E-013
 0.918662E-013
 0.918538E-013
 0.918409E-013
 0.918277E-013
 0.918141E-013
 0.918001E-013
 0.917857E-013
 0.917710E-013
 0.917560E-013
 0.917407E-013
 0.917251E-013
 0.917093E-013
 0.916931E-013
 0.916768E-013
 0.916602E-013
 0.916434E-013
 0.916265E-013
 0.916093E-013
 0.915920E-013
 0.915745E-013
 0.915568E-013
 0.915391E-013
 0.915212E-013
 0.915031E-013
 0.914850E-013
 0.914668E-013
 0.914484E-013
 0.914300E-013
 0.914115E-013
 0.913929E-013
 0.913742E-013
 0.913554E-013
 0.913366E-013
 0.913177E-013
 0.912988E-013
 0.912797E-013
 0.912607E-013
 0.912417E-013
 0.912214E-013
 0.912082E-013
 0.911631E-013
 0.912356E-013
 0.909511E-013
 0.915308E-013
 0.915772E-013
 0.908365E-013
 0.911631E-013
 0.910408E-013
 0.910679E-013
 0.910543E-013
 0.910501E-013
 0.910440E-013
 0.910383E-013
 0.910326E-013
 0.910268E-013
 0.910211E-013
 0.910155E-013
 0.910098E-013
 0.910041E-013
 0.909985E-013
 0.909929E-013
 0.909874E-013
 0.909818E-013
 0.909763E-013
 0.909708E-013
 0.909654E-013
 0.909600E-013
 0.909546E-013
 0.909493E-013
 0.909440E-013
 0.909388E-013
 0.909336E-013
 0.909285E-013
 0.909234E-013
 0.909184E-013
 0.909135E-013
 0.909086E-013
 0.909038E-013
 0.908991E-013
 0.908945E-013
 0.908900E-013
 0.908855E-013
 0.908812E-013
 0.908770E-013
 0.908729E-013
 0.908689E-013
 0.908650E-013
 0.908613E-013
 0.908577E-013
 0.908542E-013
 0.908509E-013
 0.908477E-013
 0.908447E-013
 0.908419E-013
 0.908392E-013
 0.908367E-013
 0.908343E-013
 0.908322E-013
 0.908302E-013
 0.908284E-013
 0.908268E-013
 0.908254E-013
 0.908242E-013
 0.908232E-013
 0.908223E-013
 0.908217E-013
 0.908213E-013
 0.908211E-013
 0.908211E-013
 0.908213E-013
 0.908217E-013
 0.908223E-013
 0.908232E-013
 0.908242E-013
 0.908254E-013
 0.908268E-013
 0.908284E-013
 0.908302E-013
 0.908322E-013
 0.908343E-013
 0.908367E-013
 0.908392E-013
 0.908419E-013
 0.908447E-013
 0.908477E-013
 0.908509E-013
 0.908542E-013
 0.908577E-013
 0.908613E-013
 0.908650E-013
 0.908689E-013
 0.908729E-013
 0.908770E-013
 0.908812E-013
 0.908856E-013
 0.908900E-013
 0.908945E-013
 0.908991E-013
 0.909038E-013
 0.909086E-013
 0.909135E-013
 0.909184E-013
 0.909234E-013
 0.909285E-013
 0.909336E-013
 0.909388E-013
 0.909440E-013
 0.909493E-013
 0.909546E-013
 0.909600E-013
 0.909654E-013
 0.909708E-013
 0.909763E-013
 0.909818E-013
 0.909874E-013
 0.909929E-013
 0.909985E-013
 0.910042E-013
 0.910098E-013
 0.910155E-013
 0.910211E-013
 0.910269E-013
 0.910326E-013
 0.910383E-013
 0.910441E-013
 0.910501E-013
 0.910543E-013
 0.910679E-013
 0.910408E-013
 0.911631E-013
 0.908365E-013
 0.915772E-013
 0.916844E-013
 0.908047E-013
 0.912082E-013
 0.910679E-013
 0.911096E-013
 0.911015E-013
 0.911049E-013
 0.911060E-013
 0.911075E-013
 0.911089E-013
 0.911103E-013
 0.911117E-013
 0.911131E-013
 0.911145E-013
 0.911159E-013
 0.911173E-013
 0.911187E-013
 0.911201E-013
 0.911214E-013
 0.911228E-013
 0.911242E-013
 0.911255E-013
 0.911268E-013
 0.911282E-013
 0.911295E-013
 0.911308E-013
 0.911321E-013
 0.911334E-013
 0.911346E-013
 0.911359E-013
 0.911371E-013
 0.911383E-013
 0.911396E-013
 0.911407E-013
 0.911419E-013
 0.911430E-013
 0.911442E-013
 0.911453E-013
 0.911463E-013
 0.911474E-013
 0.911484E-013
 0.911494E-013
 0.911504E-013
 0.911513E-013
 0.911522E-013
 0.911530E-013
 0.911539E-013
 0.911547E-013
 0.911554E-013
 0.911561E-013
 0.911568E-013
 0.911574E-013
 0.911580E-013
 0.911585E-013
 0.911590E-013
 0.911595E-013
 0.911599E-013
 0.911602E-013
 0.911605E-013
 0.911608E-013
 0.911610E-013
 0.911611E-013
 0.911612E-013
 0.911613E-013
 0.911613E-013
 0.911612E-013
 0.911611E-013
 0.911610E-013
 0.911608E-013
 0.911605E-013
 0.911602E-013
 0.911599E-013
 0.911595E-013
 0.911590E-013
 0.911585E-013
 0.911580E-013
 0.911574E-013
 0.911568E-013
 0.911561E-013
 0.911554E-013
 0.911547E-013
 0.911539E-013
 0.911530E-013
 0.911522E-013
 0.911513E-013
 0.911504E-013
 0.911494E-013
 0.911484E-013
 0.911474E-013
 0.911463E-013
 0.911453E-013
 0.911442E-013
 0.911430E-013
 0.911419E-013
 0.911407E-013
 0.911395E-013
 0.911383E-013
 0.911371E-013
 0.911359E-013
 0.911346E-013
 0.911334E-013
 0.911321E-013
 0.911308E-013
 0.911295E-013
 0.911282E-013
 0.911268E-013
 0.911255E-013
 0.911241E-013
 0.911228E-013
 0.911214E-013
 0.911201E-013
 0.911187E-013
 0.911173E-013
 0.911159E-013
 0.911145E-013
 0.911131E-013
 0.911117E-013
 0.911103E-013
 0.911089E-013
 0.911075E-013
 0.911060E-013
 0.911049E-013
 0.911015E-013
 0.911096E-013
 0.910679E-013
 0.912082E-013
 0.908047E-013
 0.916843E-013
 0.917759E-013
 0.907507E-013
 0.912214E-013
 0.910543E-013
 0.911015E-013
 0.910900E-013
 0.910919E-013
 0.910912E-013
 0.910910E-013
 0.910907E-013
 0.910904E-013
 0.910901E-013
 0.910898E-013
 0.910895E-013
 0.910892E-013
 0.910889E-013
 0.910887E-013
 0.910884E-013
 0.910881E-013
 0.910878E-013
 0.910875E-013
 0.910872E-013
 0.910870E-013
 0.910867E-013
 0.910864E-013
 0.910861E-013
 0.910859E-013
 0.910856E-013
 0.910853E-013
 0.910851E-013
 0.910848E-013
 0.910846E-013
 0.910843E-013
 0.910841E-013
 0.910838E-013
 0.910836E-013
 0.910834E-013
 0.910832E-013
 0.910829E-013
 0.910827E-013
 0.910825E-013
 0.910823E-013
 0.910821E-013
 0.910819E-013
 0.910818E-013
 0.910816E-013
 0.910814E-013
 0.910813E-013
 0.910811E-013
 0.910810E-013
 0.910808E-013
 0.910807E-013
 0.910806E-013
 0.910805E-013
 0.910804E-013
 0.910803E-013
 0.910802E-013
 0.910801E-013
 0.910801E-013
 0.910800E-013
 0.910800E-013
 0.910800E-013
 0.910799E-013
 0.910799E-013
 0.910799E-013
 0.910799E-013
 0.910800E-013
 0.910800E-013
 0.910800E-013
 0.910801E-013
 0.910801E-013
 0.910802E-013
 0.910803E-013
 0.910804E-013
 0.910805E-013
 0.910806E-013
 0.910807E-013
 0.910808E-013
 0.910810E-013
 0.910811E-013
 0.910813E-013
 0.910814E-013
 0.910816E-013
 0.910818E-013
 0.910819E-013
 0.910821E-013
 0.910823E-013
 0.910825E-013
 0.910827E-013
 0.910829E-013
 0.910832E-013
 0.910834E-013
 0.910836E-013
 0.910838E-013
 0.910841E-013
 0.910843E-013
 0.910846E-013
 0.910848E-013
 0.910851E-013
 0.910853E-013
 0.910856E-013
 0.910859E-013
 0.910861E-013
 0.910864E-013
 0.910867E-013
 0.910870E-013
 0.910872E-013
 0.910875E-013
 0.910878E-013
 0.910881E-013
 0.910884E-013
 0.910887E-013
 0.910889E-013
 0.910892E-013
 0.910895E-013
 0.910898E-013
 0.910901E-013
 0.910904E-013
 0.910907E-013
 0.910910E-013
 0.910912E-013
 0.910919E-013
 0.910900E-013
 0.911015E-013
 0.910543E-013
 0.912214E-013
 0.907508E-013
 0.917759E-013
 0.918705E-013
 0.907020E-013
 0.912418E-013
 0.910501E-013
 0.911049E-013
 0.910919E-013
 0.910946E-013
 0.910942E-013
 0.910944E-013
 0.910944E-013
 0.910944E-013
 0.910945E-013
 0.910946E-013
 0.910946E-013
 0.910947E-013
 0.910947E-013
 0.910948E-013
 0.910948E-013
 0.910949E-013
 0.910949E-013
 0.910950E-013
 0.910950E-013
 0.910951E-013
 0.910951E-013
 0.910952E-013
 0.910952E-013
 0.910953E-013
 0.910953E-013
 0.910954E-013
 0.910954E-013
 0.910955E-013
 0.910955E-013
 0.910956E-013
 0.910956E-013
 0.910957E-013
 0.910957E-013
 0.910958E-013
 0.910958E-013
 0.910959E-013
 0.910959E-013
 0.910959E-013
 0.910960E-013
 0.910960E-013
 0.910961E-013
 0.910961E-013
 0.910962E-013
 0.910962E-013
 0.910962E-013
 0.910963E-013
 0.910963E-013
 0.910963E-013
 0.910964E-013
 0.910964E-013
 0.910964E-013
 0.910964E-013
 0.910964E-013
 0.910965E-013
 0.910965E-013
 0.910965E-013
 0.910965E-013
 0.910965E-013
 0.910965E-013
 0.910965E-013
 0.910965E-013
 0.910965E-013
 0.910965E-013
 0.910965E-013
 0.910965E-013
 0.910965E-013
 0.910965E-013
 0.910965E-013
 0.910965E-013
 0.910964E-013
 0.910964E-013
 0.910964E-013
 0.910964E-013
 0.910964E-013
 0.910963E-013
 0.910963E-013
 0.910963E-013
 0.910962E-013
 0.910962E-013
 0.910962E-013
 0.910961E-013
 0.910961E-013
 0.910960E-013
 0.910960E-013
 0.910960E-013
 0.910959E-013
 0.910959E-013
 0.910958E-013
 0.910958E-013
 0.910957E-013
 0.910957E-013
 0.910956E-013
 0.910956E-013
 0.910955E-013
 0.910955E-013
 0.910954E-013
 0.910954E-013
 0.910953E-013
 0.910953E-013
 0.910952E-013
 0.910952E-013
 0.910951E-013
 0.910951E-013
 0.910950E-013
 0.910950E-013
 0.910949E-013
 0.910949E-013
 0.910948E-013
 0.910948E-013
 0.910947E-013
 0.910947E-013
 0.910946E-013
 0.910946E-013
 0.910945E-013
 0.910945E-013
 0.910944E-013
 0.910944E-013
 0.910942E-013
 0.910946E-013
 0.910919E-013
 0.911049E-013
 0.910501E-013
 0.912417E-013
 0.907020E-013
 0.918705E-013
 0.919642E-013
 0.906524E-013
 0.912607E-013
 0.910440E-013
 0.911060E-013
 0.910912E-013
 0.910942E-013
 0.910937E-013
 0.910938E-013
 0.910937E-013
 0.910937E-013
 0.910937E-013
 0.910937E-013
 0.910937E-013
 0.910937E-013
 0.910937E-013
 0.910937E-013
 0.910937E-013
 0.910937E-013
 0.910937E-013
 0.910937E-013
 0.910936E-013
 0.910936E-013
 0.910936E-013
 0.910936E-013
 0.910936E-013
 0.910936E-013
 0.910936E-013
 0.910936E-013
 0.910936E-013
 0.910936E-013
 0.910936E-013
 0.910936E-013
 0.910936E-013
 0.910936E-013
 0.910936E-013
 0.910936E-013
 0.910936E-013
 0.910936E-013
 0.910936E-013
 0.910936E-013
 0.910936E-013
 0.910936E-013
 0.910936E-013
 0.910936E-013
 0.910936E-013
 0.910936E-013
 0.910936E-013
 0.910936E-013
 0.910936E-013
 0.910936E-013
 0.910936E-013
 0.910936E-013
 0.910936E-013
 0.910936E-013
 0.910936E-013
 0.910936E-013
 0.910936E-013
 0.910936E-013
 0.910936E-013
 0.910936E-013
 0.910936E-013
 0.910936E-013
 0.910936E-013
 0.910936E-013
 0.910936E-013
 0.910936E-013
 0.910936E-013
 0.910936E-013
 0.910936E-013
 0.910936E-013
 0.910936E-013
 0.910936E-013
 0.910936E-013
 0.910936E-013
 0.910936E-013
 0.910936E-013
 0.910936E-013
 0.910936E-013
 0.910936E-013
 0.910936E-013
 0.910936E-013
 0.910936E-013
 0.910936E-013
 0.910936E-013
 0.910936E-013
 0.910936E-013
 0.910936E-013
 0.910936E-013
 0.910936E-013
 0.910936E-013
 0.910936E-013
 0.910936E-013
 0.910936E-013
 0.910936E-013
 0.910936E-013
 0.910936E-013
 0.910936E-013
 0.910936E-013
 0.910936E-013
 0.910936E-013
 0.910936E-013
 0.910936E-013
 0.910936E-013
 0.910936E-013
 0.910936E-013
 0.910937E-013
 0.910937E-013
 0.910937E-013
 0.910937E-013
 0.910937E-013
 0.910937E-013
 0.910937E-013
 0.910937E-013
 0.910937E-013
 0.910937E-013
 0.910937E-013
 0.910937E-013
 0.910937E-013
 0.910938E-013
 0.910937E-013
 0.910942E-013
 0.910912E-013
 0.911060E-013
 0.910441E-013
 0.912606E-013
 0.906524E-013
 0.919642E-013
 0.920578E-013
 0.906030E-013
 0.912798E-013
 0.910383E-013
 0.911075E-013
 0.910910E-013
 0.910944E-013
 0.910938E-013
 0.910939E-013
 0.910938E-013
 0.910938E-013
 0.910938E-013
 0.910938E-013
 0.910938E-013
 0.910939E-013
 0.910939E-013
 0.910939E-013
 0.910939E-013
 0.910939E-013
 0.910939E-013
 0.910939E-013
 0.910939E-013
 0.910939E-013
 0.910939E-013
 0.910939E-013
 0.910939E-013
 0.910939E-013
 0.910939E-013
 0.910939E-013
 0.910939E-013
 0.910939E-013
 0.910939E-013
 0.910939E-013
 0.910939E-013
 0.910939E-013
 0.910939E-013
 0.910939E-013
 0.910939E-013
 0.910940E-013
 0.910940E-013
 0.910940E-013
 0.910940E-013
 0.910940E-013
 0.910940E-013
 0.910940E-013
 0.910940E-013
 0.910940E-013
 0.910940E-013
 0.910940E-013
 0.910941E-013
 0.910941E-013
 0.910941E-013
 0.910941E-013
 0.910941E-013
 0.910941E-013
 0.910941E-013
 0.910941E-013
 0.910941E-013
 0.910941E-013
 0.910941E-013
 0.910941E-013
 0.910941E-013
 0.910941E-013
 0.910941E-013
 0.910941E-013
 0.910941E-013
 0.910941E-013
 0.910941E-013
 0.910941E-013
 0.910941E-013
 0.910941E-013
 0.910941E-013
 0.910941E-013
 0.910941E-013
 0.910941E-013
 0.910941E-013
 0.910941E-013
 0.910941E-013
 0.910941E-013
 0.910940E-013
 0.910940E-013
 0.910940E-013
 0.910940E-013
 0.910940E-013
 0.910940E-013
 0.910940E-013
 0.910940E-013
 0.910940E-013
 0.910940E-013
 0.910940E-013
 0.910940E-013
 0.910939E-013
 0.910939E-013
 0.910939E-013
 0.910939E-013
 0.910939E-013
 0.910939E-013
 0.910939E-013
 0.910939E-013
 0.910939E-013
 0.910939E-013
 0.910939E-013
 0.910939E-013
 0.910939E-013
 0.910939E-013
 0.910939E-013
 0.910939E-013
 0.910939E-013
 0.910939E-013
 0.910939E-013
 0.910939E-013
 0.910939E-013
 0.910939E-013
 0.910939E-013
 0.910939E-013
 0.910939E-013
 0.910938E-013
 0.910938E-013
 0.910938E-013
 0.910939E-013
 0.910938E-013
 0.910944E-013
 0.910910E-013
 0.911075E-013
 0.910383E-013
 0.912797E-013
 0.906031E-013
 0.920578E-013
 0.921511E-013
 0.905539E-013
 0.912988E-013
 0.910326E-013
 0.911089E-013
 0.910907E-013
 0.910944E-013
 0.910937E-013
 0.910938E-013
 0.910938E-013
 0.910938E-013
 0.910938E-013
 0.910938E-013
 0.910938E-013
 0.910938E-013
 0.910938E-013
 0.910938E-013
 0.910938E-013
 0.910938E-013
 0.910938E-013
 0.910938E-013
 0.910938E-013
 0.910938E-013
 0.910938E-013
 0.910938E-013
 0.910938E-013
 0.910939E-013
 0.910939E-013
 0.910939E-013
 0.910939E-013
 0.910939E-013
 0.910939E-013
 0.910939E-013
 0.910939E-013
 0.910939E-013
 0.910939E-013
 0.910939E-013
 0.910939E-013
 0.910939E-013
 0.910939E-013
 0.910939E-013
 0.910939E-013
 0.910940E-013
 0.910940E-013
 0.910940E-013
 0.910940E-013
 0.910940E-013
 0.910940E-013
 0.910940E-013
 0.910940E-013
 0.910940E-013
 0.910940E-013
 0.910941E-013
 0.910941E-013
 0.910941E-013
 0.910941E-013
 0.910941E-013
 0.910941E-013
 0.910941E-013
 0.910941E-013
 0.910941E-013
 0.910941E-013
 0.910941E-013
 0.910941E-013
 0.910941E-013
 0.910941E-013
 0.910941E-013
 0.910941E-013
 0.910941E-013
 0.910941E-013
 0.910941E-013
 0.910941E-013
 0.910941E-013
 0.910941E-013
 0.910941E-013
 0.910941E-013
 0.910940E-013
 0.910940E-013
 0.910940E-013
 0.910940E-013
 0.910940E-013
 0.910940E-013
 0.910940E-013
 0.910940E-013
 0.910940E-013
 0.910940E-013
 0.910940E-013
 0.910939E-013
 0.910939E-013
 0.910939E-013
 0.910939E-013
 0.910939E-013
 0.910939E-013
 0.910939E-013
 0.910939E-013
 0.910939E-013
 0.910939E-013
 0.910939E-013
 0.910939E-013
 0.910939E-013
 0.910939E-013
 0.910939E-013
 0.910939E-013
 0.910938E-013
 0.910938E-013
 0.910938E-013
 0.910938E-013
 0.910938E-013
 0.910938E-013
 0.910938E-013
 0.910938E-013
 0.910938E-013
 0.910938E-013
 0.910938E-013
 0.910938E-013
 0.910938E-013
 0.910938E-013
 0.910938E-013
 0.910938E-013
 0.910938E-013
 0.910937E-013
 0.910944E-013
 0.910907E-013
 0.911089E-013
 0.910326E-013
 0.912987E-013
 0.905539E-013
 0.921511E-013
 0.922441E-013
 0.905048E-013
 0.913177E-013
 0.910268E-013
 0.911103E-013
 0.910904E-013
 0.910944E-013
 0.910937E-013
 0.910938E-013
 0.910938E-013
 0.910938E-013
 0.910938E-013
 0.910938E-013
 0.910938E-013
 0.910938E-013
 0.910938E-013
 0.910938E-013
 0.910938E-013
 0.910938E-013
 0.910938E-013
 0.910938E-013
 0.910938E-013
 0.910938E-013
 0.910939E-013
 0.910939E-013
 0.910939E-013
 0.910939E-013
 0.910939E-013
 0.910939E-013
 0.910939E-013
 0.910939E-013
 0.910939E-013
 0.910939E-013
 0.910939E-013
 0.910939E-013
 0.910939E-013
 0.910939E-013
 0.910939E-013
 0.910939E-013
 0.910940E-013
 0.910940E-013
 0.910940E-013
 0.910940E-013
 0.910940E-013
 0.910940E-013
 0.910940E-013
 0.910940E-013
 0.910941E-013
 0.910941E-013