# vtk DataFile Version 3.0
Solution data
ASCII
DATASET STRUCTURED_GRID
DIMENSIONS 128 128 1
POINTS 16384  double
      0.000004      0.000004      0.000000
      0.000012      0.000004      0.000000
      0.000020      0.000004      0.000000
      0.000027      0.000004      0.000000
      0.000035      0.000004      0.000000
      0.000043      0.000004      0.000000
      0.000051      0.000004      0.000000
      0.000059      0.000004      0.000000
      0.000066      0.000004      0.000000
      0.000074      0.000004      0.000000
      0.000082      0.000004      0.000000
      0.000090      0.000004      0.000000
      0.000098      0.000004      0.000000
      0.000105      0.000004      0.000000
      0.000113      0.000004      0.000000
      0.000121      0.000004      0.000000
      0.000129      0.000004      0.000000
      0.000137      0.000004      0.000000
      0.000145      0.000004      0.000000
      0.000152      0.000004      0.000000
      0.000160      0.000004      0.000000
      0.000168      0.000004      0.000000
      0.000176      0.000004      0.000000
      0.000184      0.000004      0.000000
      0.000191      0.000004      0.000000
      0.000199      0.000004      0.000000
      0.000207      0.000004      0.000000
      0.000215      0.000004      0.000000
      0.000223      0.000004      0.000000
      0.000230      0.000004      0.000000
      0.000238      0.000004      0.000000
      0.000246      0.000004      0.000000
      0.000254      0.000004      0.000000
      0.000262      0.000004      0.000000
      0.000270      0.000004      0.000000
      0.000277      0.000004      0.000000
      0.000285      0.000004      0.000000
      0.000293      0.000004      0.000000
      0.000301      0.000004      0.000000
      0.000309      0.000004      0.000000
      0.000316      0.000004      0.000000
      0.000324      0.000004      0.000000
      0.000332      0.000004      0.000000
      0.000340      0.000004      0.000000
      0.000348      0.000004      0.000000
      0.000355      0.000004      0.000000
      0.000363      0.000004      0.000000
      0.000371      0.000004      0.000000
      0.000379      0.000004      0.000000
      0.000387      0.000004      0.000000
      0.000395      0.000004      0.000000
      0.000402      0.000004      0.000000
      0.000410      0.000004      0.000000
      0.000418      0.000004      0.000000
      0.000426      0.000004      0.000000
      0.000434      0.000004      0.000000
      0.000441      0.000004      0.000000
      0.000449      0.000004      0.000000
      0.000457      0.000004      0.000000
      0.000465      0.000004      0.000000
      0.000473      0.000004      0.000000
      0.000480      0.000004      0.000000
      0.000488      0.000004      0.000000
      0.000496      0.000004      0.000000
      0.000504      0.000004      0.000000
      0.000512      0.000004      0.000000
      0.000520      0.000004      0.000000
      0.000527      0.000004      0.000000
      0.000535      0.000004      0.000000
      0.000543      0.000004      0.000000
      0.000551      0.000004      0.000000
      0.000559      0.000004      0.000000
      0.000566      0.000004      0.000000
      0.000574      0.000004      0.000000
      0.000582      0.000004      0.000000
      0.000590      0.000004      0.000000
      0.000598      0.000004      0.000000
      0.000605      0.000004      0.000000
      0.000613      0.000004      0.000000
      0.000621      0.000004      0.000000
      0.000629      0.000004      0.000000
      0.000637      0.000004      0.000000
      0.000645      0.000004      0.000000
      0.000652      0.000004      0.000000
      0.000660      0.000004      0.000000
      0.000668      0.000004      0.000000
      0.000676      0.000004      0.000000
      0.000684      0.000004      0.000000
      0.000691      0.000004      0.000000
      0.000699      0.000004      0.000000
      0.000707      0.000004      0.000000
      0.000715      0.000004      0.000000
      0.000723      0.000004      0.000000
      0.000730      0.000004      0.000000
      0.000738      0.000004      0.000000
      0.000746      0.000004      0.000000
      0.000754      0.000004      0.000000
      0.000762      0.000004      0.000000
      0.000770      0.000004      0.000000
      0.000777      0.000004      0.000000
      0.000785      0.000004      0.000000
      0.000793      0.000004      0.000000
      0.000801      0.000004      0.000000
      0.000809      0.000004      0.000000
      0.000816      0.000004      0.000000
      0.000824      0.000004      0.000000
      0.000832      0.000004      0.000000
      0.000840      0.000004      0.000000
      0.000848      0.000004      0.000000
      0.000855      0.000004      0.000000
      0.000863      0.000004      0.000000
      0.000871      0.000004      0.000000
      0.000879      0.000004      0.000000
      0.000887      0.000004      0.000000
      0.000895      0.000004      0.000000
      0.000902      0.000004      0.000000
      0.000910      0.000004      0.000000
      0.000918      0.000004      0.000000
      0.000926      0.000004      0.000000
      0.000934      0.000004      0.000000
      0.000941      0.000004      0.000000
      0.000949      0.000004      0.000000
      0.000957      0.000004      0.000000
      0.000965      0.000004      0.000000
      0.000973      0.000004      0.000000
      0.000980      0.000004      0.000000
      0.000988      0.000004      0.000000
      0.000996      0.000004      0.000000
      0.000004      0.000012      0.000000
      0.000012      0.000012      0.000000
      0.000020      0.000012      0.000000
      0.000027      0.000012      0.000000
      0.000035      0.000012      0.000000
      0.000043      0.000012      0.000000
      0.000051      0.000012      0.000000
      0.000059      0.000012      0.000000
      0.000066      0.000012      0.000000
      0.000074      0.000012      0.000000
      0.000082      0.000012      0.000000
      0.000090      0.000012      0.000000
      0.000098      0.000012      0.000000
      0.000105      0.000012      0.000000
      0.000113      0.000012      0.000000
      0.000121      0.000012      0.000000
      0.000129      0.000012      0.000000
      0.000137      0.000012      0.000000
      0.000145      0.000012      0.000000
      0.000152      0.000012      0.000000
      0.000160      0.000012      0.000000
      0.000168      0.000012      0.000000
      0.000176      0.000012      0.000000
      0.000184      0.000012      0.000000
      0.000191      0.000012      0.000000
      0.000199      0.000012      0.000000
      0.000207      0.000012      0.000000
      0.000215      0.000012      0.000000
      0.000223      0.000012      0.000000
      0.000230      0.000012      0.000000
      0.000238      0.000012      0.000000
      0.000246      0.000012      0.000000
      0.000254      0.000012      0.000000
      0.000262      0.000012      0.000000
      0.000270      0.000012      0.000000
      0.000277      0.000012      0.000000
      0.000285      0.000012      0.000000
      0.000293      0.000012      0.000000
      0.000301      0.000012      0.000000
      0.000309      0.000012      0.000000
      0.000316      0.000012      0.000000
      0.000324      0.000012      0.000000
      0.000332      0.000012      0.000000
      0.000340      0.000012      0.000000
      0.000348      0.000012      0.000000
      0.000355      0.000012      0.000000
      0.000363      0.000012      0.000000
      0.000371      0.000012      0.000000
      0.000379      0.000012      0.000000
      0.000387      0.000012      0.000000
      0.000395      0.000012      0.000000
      0.000402      0.000012      0.000000
      0.000410      0.000012      0.000000
      0.000418      0.000012      0.000000
      0.000426      0.000012      0.000000
      0.000434      0.000012      0.000000
      0.000441      0.000012      0.000000
      0.000449      0.000012      0.000000
      0.000457      0.000012      0.000000
      0.000465      0.000012      0.000000
      0.000473      0.000012      0.000000
      0.000480      0.000012      0.000000
      0.000488      0.000012      0.000000
      0.000496      0.000012      0.000000
      0.000504      0.000012      0.000000
      0.000512      0.000012      0.000000
      0.000520      0.000012      0.000000
      0.000527      0.000012      0.000000
      0.000535      0.000012      0.000000
      0.000543      0.000012      0.000000
      0.000551      0.000012      0.000000
      0.000559      0.000012      0.000000
      0.000566      0.000012      0.000000
      0.000574      0.000012      0.000000
      0.000582      0.000012      0.000000
      0.000590      0.000012      0.000000
      0.000598      0.000012      0.000000
      0.000605      0.000012      0.000000
      0.000613      0.000012      0.000000
      0.000621      0.000012      0.000000
      0.000629      0.000012      0.000000
      0.000637      0.000012      0.000000
      0.000645      0.000012      0.000000
      0.000652      0.000012      0.000000
      0.000660      0.000012      0.000000
      0.000668      0.000012      0.000000
      0.000676      0.000012      0.000000
      0.000684      0.000012      0.000000
      0.000691      0.000012      0.000000
      0.000699      0.000012      0.000000
      0.000707      0.000012      0.000000
      0.000715      0.000012      0.000000
      0.000723      0.000012      0.000000
      0.000730      0.000012      0.000000
      0.000738      0.000012      0.000000
      0.000746      0.000012      0.000000
      0.000754      0.000012      0.000000
      0.000762      0.000012      0.000000
      0.000770      0.000012      0.000000
      0.000777      0.000012      0.000000
      0.000785      0.000012      0.000000
[...]
POINT_DATA 16384
SCALARS rhoe double
LOOKUP_TABLE default
 0.915859E-013
 0.912862E-013
 0.915283E-013
 0.915808E-013
 0.916877E-013
 0.917811E-013
 0.918771E-013
 0.919723E-013
 0.920673E-013
 0.921620E-013
 0.922564E-013
 0.923506E-013
 0.924444E-013
 0.925379E-013
 0.926310E-013
 0.927238E-013
 0.928162E-013
 0.929082E-013
 0.929998E-013
 0.930908E-013
 0.931814E-013
 0.932714E-013
 0.933608E-013
 0.934495E-013
 0.935376E-013
 0.936250E-013
 0.937115E-013
 0.937973E-013
 0.938821E-013
 0.939659E-013
 0.940487E-013
 0.941304E-013
 0.942109E-013
 0.942902E-013
 0.943681E-013
 0.944446E-013
 0.945196E-013
 0.945930E-013
 0.946647E-013
 0.947347E-013
 0.948028E-013
 0.948690E-013
 0.949331E-013
 0.949951E-013
 0.950549E-013
 0.951123E-013
 0.951674E-013
 0.952199E-013
 0.952699E-013
 0.953173E-013
 0.953618E-013
 0.954036E-013
 0.954424E-013
 0.954783E-013
 0.955112E-013
 0.955409E-013
 0.955675E-013
 0.955909E-013
 0.956110E-013
 0.956278E-013
 0.956414E-013
 0.956515E-013
 0.956583E-013
 0.956617E-013
 0.956617E-013
 0.956583E-013
 0.956515E-013
 0.956414E-013
 0.956278E-013
 0.956110E-013
 0.955909E-013
 0.955675E-013
 0.955409E-013
 0.955112E-013
 0.954783E-013
 0.954424E-013
 0.954036E-013
 0.953618E-013
 0.953172E-013
 0.952699E-013
 0.952199E-013
 0.951674E-013
 0.951123E-013
 0.950549E-013
 0.949951E-013
 0.949331E-013
 0.948690E-013
 0.948028E-013
 0.947347E-013
 0.946647E-013
 0.945930E-013
 0.945196E-013
 0.944446E-013
 0.943681E-013
 0.942902E-013
 0.942109E-013
 0.941304E-013
 0.940487E-013
 0.939659E-013
 0.938821E-013
 0.937972E-013
 0.937115E-013
 0.936250E-013
 0.935376E-013
 0.934495E-013
 0.933608E-013
 0.932713E-013
 0.931814E-013
 0.930908E-013
 0.929997E-013
 0.929082E-013
 0.928162E-013
 0.927238E-013
 0.926310E-013
 0.925379E-013
 0.924444E-013
 0.923505E-013
 0.922564E-013
 0.921620E-013
 0.920672E-013
 0.919722E-013
 0.918771E-013
 0.917811E-013
 0.916877E-013
 0.915808E-013
 0.915282E-013
 0.912862E-013
 0.915858E-013
 0.912862E-013
 0.908238E-013
 0.909536E-013
 0.908452E-013
 0.908122E-013
 0.907600E-013
 0.907121E-013
 0.906635E-013
 0.906152E-013
 0.905671E-013
 0.905190E-013
 0.904712E-013
 0.904235E-013
 0.903759E-013
 0.903286E-013
 0.902814E-013
 0.902344E-013
 0.901877E-013
 0.901412E-013
 0.900949E-013
 0.900489E-013
 0.900031E-013
 0.899577E-013
 0.899126E-013
 0.898678E-013
 0.898234E-013
 0.897794E-013
 0.897359E-013
 0.896928E-013
 0.896502E-013
 0.896081E-013
 0.895666E-013
 0.895257E-013
 0.894854E-013
 0.894458E-013
 0.894069E-013
 0.893688E-013
 0.893315E-013
 0.892951E-013
 0.892595E-013
 0.892249E-013
 0.891913E-013
 0.891587E-013
 0.891272E-013
 0.890968E-013
 0.890676E-013
 0.890396E-013
 0.890129E-013
 0.889875E-013
 0.889634E-013
 0.889408E-013
 0.889195E-013
 0.888998E-013
 0.888815E-013
 0.888648E-013
 0.888497E-013
 0.888362E-013
 0.888243E-013
 0.888141E-013
 0.888055E-013
 0.887987E-013
 0.887935E-013
 0.887901E-013
 0.887883E-013
 0.887883E-013
 0.887901E-013
 0.887935E-013
 0.887987E-013
 0.888055E-013
 0.888141E-013
 0.888243E-013
 0.888362E-013
 0.888498E-013
 0.888649E-013
 0.888816E-013
 0.888998E-013
 0.889196E-013
 0.889408E-013
 0.889635E-013
 0.889875E-013
 0.890129E-013
 0.890396E-013
 0.890676E-013
 0.890968E-013
 0.891272E-013
 0.891587E-013
 0.891913E-013
 0.892250E-013
 0.892596E-013
 0.892951E-013
 0.893316E-013
 0.893689E-013
 0.894070E-013
 0.894459E-013
 0.894855E-013
 0.895258E-013
 0.895667E-013
 0.896082E-013
 0.896503E-013
 0.896929E-013
 0.897360E-013
 0.897795E-013
 0.898235E-013
 0.898679E-013
 0.899127E-013
 0.899578E-013
 0.900032E-013
 0.900489E-013
 0.900950E-013
 0.901412E-013
 0.901877E-013
 0.902345E-013
 0.902815E-013
 0.903286E-013
 0.903760E-013
 0.904235E-013
 0.904712E-013
 0.905191E-013
 0.905671E-013
 0.906153E-013
 0.906636E-013
 0.907121E-013
 0.907600E-013
 0.908123E-013
 0.908452E-013
 0.909536E-013
 0.908238E-013
 0.912862E-013
 0.915283E-013
 0.909536E-013
 0.912256E-013
 0.911593E-013
 0.912000E-013
 0.912130E-013
 0.912319E-013
 0.912497E-013
 0.912676E-013
 0.912854E-013
 0.913032E-013
 0.913209E-013
 0.913386E-013
 0.913562E-013
 0.913737E-013
 0.913911E-013
 0.914085E-013
 0.914258E-013
 0.914430E-013
 0.914601E-013
 0.914771E-013
 0.914941E-013
 0.915109E-013
 0.915275E-013
 0.915441E-013
 0.915605E-013
 0.915768E-013
 0.915929E-013
 0.916088E-013
 0.916245E-013
 0.916401E-013
 0.916554E-013
 0.916706E-013
 0.916854E-013
 0.917001E-013
 0.917144E-013
 0.917285E-013
 0.917423E-013
 0.917558E-013
 0.917689E-013
 0.917817E-013
 0.917941E-013
 0.918062E-013
 0.918178E-013
 0.918291E-013
 0.918399E-013
 0.918502E-013
 0.918601E-013
 0.918695E-013
 0.918783E-013
 0.918867E-013
 0.918946E-013
 0.919019E-013
 0.919086E-013
 0.919148E-013
 0.919203E-013
 0.919253E-013
 0.919297E-013
 0.919335E-013
 0.919367E-013
 0.919392E-013
 0.919411E-013
 0.919424E-013
 0.919430E-013
 0.919430E-013
 0.919424E-013
 0.919411E-013
 0.919392E-013
 0.919367E-013
 0.919335E-013
 0.919297E-013
 0.919253E-013
 0.919203E-013
 0.919147E-013
 0.919086E-013
 0.919018E-013
 0.918945E-013
 0.918867E-013
 0.918783E-013
 0.918694E-013
 0.918600E-013
 0.918502E-013
 0.918398E-013
 0.918290E-013
 0.918178E-013
 0.918062E-013
 0.917941E-013
 0.917817E-013
 0.917689E-013
 0.917557E-013
 0.917423E-013
 0.917285E-013
 0.917144E-013
 0.917000E-013
 0.916854E-013
 0.916705E-013
 0.916554E-013
 0.916401E-013
 0.916245E-013
 0.916088E-013
 0.915928E-013
 0.915767E-013
 0.915605E-013
 0.915440E-013
 0.915275E-013
 0.915108E-013
 0.914940E-013
 0.914771E-013
 0.914601E-013
 0.914430E-013
 0.914258E-013
 0.914085E-013
 0.913911E-013
 0.913737E-013
 0.913561E-013
 0.913385E-013
 0.913209E-013
 0.913032E-013
 0.912854E-013
 0.912676E-013
 0.912497E-013
 0.912319E-013
 0.912130E-013
 0.912000E-013
 0.911593E-013
 0.912255E-013
 0.909536E-013
 0.915282E-013
 0.915808E-013
 0.908452E-013
 0.911593E-013
 0.910466E-013
 0.910705E-013
 0.910587E-013
 0.910548E-013
 0.910494E-013
 0.910443E-013
 0.910392E-013
 0.910340E-013
 0.910289E-013
 0.910238E-013
 0.910188E-013
 0.910137E-013
 0.910087E-013
 0.910037E-013
 0.909987E-013
 0.909938E-013
 0.909888E-013
 0.909839E-013
 0.909791E-013
 0.909742E-013
 0.909694E-013
 0.909647E-013
 0.909599E-013
 0.909553E-013
 0.909506E-013
 0.909460E-013
 0.909415E-013
 0.909370E-013
 0.909326E-013
 0.909283E-013
 0.909240E-013
 0.909198E-013
 0.909157E-013
 0.909116E-013
 0.909076E-013
 0.909038E-013
 0.909000E-013
 0.908963E-013
 0.908928E-013
 0.908893E-013
 0.908859E-013
 0.908827E-013
 0.908796E-013
 0.908767E-013
 0.908738E-013
 0.908711E-013
 0.908686E-013
 0.908662E-013
 0.908639E-013
 0.908618E-013
 0.908599E-013
 0.908581E-013
 0.908565E-013
 0.908551E-013
 0.908538E-013
 0.908527E-013
 0.908518E-013
 0.908511E-013
 0.908506E-013
 0.908502E-013
 0.908500E-013
 0.908500E-013
 0.908502E-013
 0.908506E-013
 0.908511E-013
 0.908518E-013
 0.908527E-013
 0.908538E-013
 0.908551E-013
 0.908565E-013
 0.908581E-013
 0.908599E-013
 0.908618E-013
 0.908639E-013
 0.908662E-013
 0.908686E-013
 0.908711E-013
 0.908738E-013
 0.908767E-013
 0.908796E-013
 0.908827E-013
 0.908860E-013
 0.908893E-013
 0.908928E-013
 0.908963E-013
 0.909000E-013
 0.909038E-013
 0.909077E-013
 0.909116E-013
 0.909157E-013
 0.909198E-013
 0.909240E-013
 0.909283E-013
 0.909326E-013
 0.909371E-013
 0.909415E-013
 0.909461E-013
 0.909506E-013
 0.909553E-013
 0.909600E-013
 0.909647E-013
 0.909694E-013
 0.909742E-013
 0.909791E-013
 0.909839E-013
 0.909888E-013
 0.909938E-013
 0.909987E-013
 0.910037E-013
 0.910087E-013
 0.910137E-013
 0.910188E-013
 0.910239E-013
 0.910289E-013
 0.910340E-013
 0.910392E-013
 0.910443E-013
 0.910494E-013
 0.910548E-013
 0.910587E-013
 0.910705E-013
 0.910467E-013
 0.911593E-013
 0.908452E-013
 0.915808E-013
 0.916877E-013
 0.908122E-013
 0.912000E-013
 0.910705E-013
 0.911072E-013
 0.911004E-013
 0.911032E-013
 0.911042E-013
 0.911054E-013
 0.911066E-013
 0.911078E-013
 0.911090E-013
 0.911102E-013
 0.911114E-013
 0.911126E-013
 0.911138E-013
 0.911150E-013
 0.911161E-013
 0.911173E-013
 0.911185E-013
 0.911196E-013
 0.911208E-013
 0.911219E-013
 0.911230E-013
 0.911242E-013
 0.911253E-013
 0.911264E-013
 0.911275E-013
 0.911286E-013
 0.911296E-013
 0.911307E-013
 0.911317E-013
 0.911327E-013
 0.911338E-013
 0.911347E-013
 0.911357E-013
 0.911367E-013
 0.911376E-013
 0.911385E-013
 0.911394E-013
 0.911403E-013
 0.911411E-013
 0.911419E-013
 0.911427E-013
 0.911435E-013
 0.911442E-013
 0.911449E-013
 0.911456E-013
 0.911462E-013
 0.911469E-013
 0.911474E-013
 0.911480E-013
 0.911485E-013
 0.911489E-013
 0.911493E-013
 0.911497E-013
 0.911501E-013
 0.911504E-013
 0.911506E-013
 0.911508E-013
 0.911510E-013
 0.911511E-013
 0.911512E-013
 0.911513E-013
 0.911513E-013
 0.911512E-013
 0.911511E-013
 0.911510E-013
 0.911508E-013
 0.911506E-013
 0.911504E-013
 0.911501E-013
 0.911497E-013
 0.911493E-013
 0.911489E-013
 0.911485E-013
 0.911480E-013
 0.911474E-013
 0.911469E-013
 0.911462E-013
 0.911456E-013
 0.911449E-013
 0.911442E-013
 0.911435E-013
 0.911427E-013
 0.911419E-013
 0.911411E-013
 0.911403E-013
 0.911394E-013
 0.911385E-013
 0.911376E-013
 0.911367E-013
 0.911357E-013
 0.911347E-013
 0.911337E-013
 0.911327E-013
 0.911317E-013
 0.911307E-013
 0.911296E-013
 0.911286E-013
 0.911275E-013
 0.911264E-013
 0.911253E-013
 0.911242E-013
 0.911230E-013
 0.911219E-013
 0.911208E-013
 0.911196E-013
 0.911185E-013
 0.911173E-013
 0.911161E-013
 0.911150E-013
 0.911138E-013
 0.911126E-013
 0.911114E-013
 0.911102E-013
 0.911090E-013
 0.911078E-013
 0.911066E-013
 0.911054E-013
 0.911042E-013
 0.911032E-013
 0.911004E-013
 0.911072E-013
 0.910705E-013
 0.912000E-013
 0.908123E-013
 0.916877E-013
 0.917811E-013
 0.907600E-013
 0.912130E-013
 0.910587E-013
 0.911004E-013
 0.910907E-013
 0.910923E-013
 0.910917E-013
 0.910915E-013
 0.910913E-013
 0.910911E-013
 0.910908E-013
 0.910906E-013
 0.910903E-013
 0.910901E-013
 0.910899E-013
 0.910896E-013
 0.910894E-013
 0.910892E-013
 0.910889E-013
 0.910887E-013
 0.910885E-013
 0.910883E-013
 0.910880E-013
 0.910878E-013
 0.910876E-013
 0.910874E-013
 0.910872E-013
 0.910870E-013
 0.910868E-013
 0.910865E-013
 0.910863E-013
 0.910861E-013
 0.910860E-013
 0.910858E-013
 0.910856E-013
 0.910854E-013
 0.910852E-013
 0.910850E-013
 0.910849E-013
 0.910847E-013
 0.910845E-013
 0.910844E-013
 0.910842E-013
 0.910841E-013
 0.910839E-013
 0.910838E-013
 0.910837E-013
 0.910836E-013
 0.910834E-013
 0.910833E-013
 0.910832E-013
 0.910831E-013
 0.910831E-013
 0.910830E-013
 0.910829E-013
 0.910829E-013
 0.910828E-013
 0.910827E-013
 0.910827E-013
 0.910827E-013
 0.910827E-013
 0.910826E-013
 0.910826E-013
 0.910826E-013
 0.910826E-013
 0.910827E-013
 0.910827E-013
 0.910827E-013
 0.910827E-013
 0.910828E-013
 0.910829E-013
 0.910829E-013
 0.910830E-013
 0.910831E-013
 0.910831E-013
 0.910832E-013
 0.910833E-013
 0.910834E-013
 0.910836E-013
 0.910837E-013
 0.910838E-013
 0.910839E-013
 0.910841E-013
 0.910842E-013
 0.910844E-013
 0.910845E-013
 0.910847E-013
 0.910849E-013
 0.910850E-013
 0.910852E-013
 0.910854E-013
 0.910856E-013
 0.910858E-013
 0.910860E-013
 0.910861E-013
 0.910863E-013
 0.910866E-013
 0.910868E-013
 0.910870E-013
 0.910872E-013
 0.910874E-013
 0.910876E-013
 0.910878E-013
 0.910880E-013
 0.910883E-013
 0.910885E-013
 0.910887E-013
 0.910890E-013
 0.910892E-013
 0.910894E-013
 0.910896E-013
 0.910899E-013
 0.910901E-013
 0.910903E-013
 0.910906E-013
 0.910908E-013
 0.910911E-013
 0.910913E-013
 0.910915E-013
 0.910917E-013
 0.910923E-013
 0.910907E-013
 0.911004E-013
 0.910587E-013
 0.912130E-013
 0.907600E-013
 0.917811E-013
 0.918771E-013
 0.907121E-013
 0.912319E-013
 0.910548E-013
 0.911032E-013
 0.910923E-013
 0.910944E-013
 0.910941E-013
 0.910942E-013
 0.910943E-013
 0.910943E-013
 0.910943E-013
 0.910944E-013
 0.910944E-013
 0.910945E-013
 0.910945E-013
 0.910945E-013
 0.910946E-013
 0.910946E-013
 0.910947E-013
 0.910947E-013
 0.910948E-013
 0.910948E-013
 0.910948E-013
 0.910949E-013
 0.910949E-013
 0.910950E-013
 0.910950E-013
 0.910950E-013
 0.910951E-013
 0.910951E-013
 0.910951E-013
 0.910952E-013
 0.910952E-013
 0.910953E-013
 0.910953E-013
 0.910953E-013
 0.910954E-013
 0.910954E-013
 0.910954E-013
 0.910955E-013
 0.910955E-013
 0.910955E-013
 0.910956E-013
 0.910956E-013
 0.910956E-013
 0.910957E-013
 0.910957E-013
 0.910957E-013
 0.910958E-013
 0.910958E-013
 0.910958E-013
 0.910958E-013
 0.910959E-013
 0.910959E-013
 0.910959E-013
 0.910959E-013
 0.910959E-013
 0.910959E-013
 0.910959E-013
 0.910960E-013
 0.910960E-013
 0.910960E-013
 0.910960E-013
 0.910960E-013
 0.910960E-013
 0.910960E-013
 0.910960E-013
 0.910959E-013
 0.910959E-013
 0.910959E-013
 0.910959E-013
 0.910959E-013
 0.910959E-013
 0.910959E-013
 0.910958E-013
 0.910958E-013
 0.910958E-013
 0.910958E-013
 0.910957E-013
 0.910957E-013
 0.910957E-013
 0.910956E-013
 0.910956E-013
 0.910956E-013
 0.910956E-013
 0.910955E-013
 0.910955E-013
 0.910954E-013
 0.910954E-013
 0.910954E-013
 0.910953E-013
 0.910953E-013
 0.910953E-013
 0.910952E-013
 0.910952E-013
 0.910951E-013
 0.910951E-013
 0.910951E-013
 0.910950E-013
 0.910950E-013
 0.910950E-013
 0.910949E-013
 0.910949E-013
 0.910948E-013
 0.910948E-013
 0.910948E-013
 0.910947E-013
 0.910947E-013
 0.910946E-013
 0.910946E-013
 0.910946E-013
 0.910945E-013
 0.910945E-013
 0.910944E-013
 0.910944E-013
 0.910943E-013
 0.910943E-013
 0.910943E-013
 0.910942E-013
 0.910941E-013
 0.910945E-013
 0.910923E-013
 0.911032E-013
 0.910548E-013
 0.912319E-013
 0.907121E-013
 0.918771E-013
 0.919723E-013
 0.906635E-013
 0.912497E-013
 0.910494E-013
 0.911042E-013
 0.910917E-013
 0.910941E-013
 0.910937E-013
 0.910938E-013
 0.910938E-013
 0.910938E-013
 0.910938E-013
 0.910937E-013
 0.910937E-013
 0.910937E-013
 0.910937E-013
 0.910937E-013
 0.910937E-013
 0.910937E-013
 0.910937E-013
 0.910937E-013
 0.910937E-013
 0.910937E-013
 0.910937E-013
 0.910937E-013
 0.910937E-013
 0.910937E-013
 0.910937E-013
 0.910937E-013
 0.910937E-013
 0.910937E-013
 0.910937E-013
 0.910937E-013
 0.910937E-013
 0.910937E-013
 0.910937E-013
 0.910937E-013
 0.910937E-013
 0.910937E-013
 0.910937E-013
 0.910937E-013
 0.910937E-013
 0.910937E-013
 0.910937E-013
 0.910937E-013
 0.910937E-013
 0.910937E-013
 0.910937E-013
 0.910937E-013
 0.910937E-013
 0.910937E-013
 0.910937E-013
 0.910937E-013
 0.910937E-013
 0.910937E-013
 0.910937E-013
 0.910937E-013
 0.910938E-013
 0.910938E-013
 0.910938E-013
 0.910938E-013
 0.910938E-013
 0.910938E-013
 0.910938E-013
 0.910938E-013
 0.910938E-013
 0.910938E-013
 0.910938E-013
 0.910938E-013
 0.910938E-013
 0.910938E-013
 0.910937E-013
 0.910937E-013
 0.910937E-013
 0.910937E-013
 0.910937E-013
 0.910937E-013
 0.910937E-013
 0.910937E-013
 0.910937E-013
 0.910937E-013
 0.910937E-013
 0.910937E-013
 0.910937E-013
 0.910937E-013
 0.910937E-013
 0.910937E-013
 0.910937E-013
 0.910937E-013
 0.910937E-013
 0.910937E-013
 0.910937E-013
 0.910937E-013
 0.910937E-013
 0.910937E-013
 0.910937E-013
 0.910937E-013
 0.910937E-013
 0.910937E-013
 0.910937E-013
 0.910937E-013
 0.910937E-013
 0.910937E-013
 0.910937E-013
 0.910937E-013
 0.910937E-013
 0.910937E-013
 0.910937E-013
 0.910937E-013
 0.910937E-013
 0.910937E-013
 0.910937E-013
 0.910937E-013
 0.910937E-013
 0.910937E-013
 0.910937E-013
 0.910938E-013
 0.910938E-013
 0.910938E-013
 0.910938E-013
 0.910937E-013
 0.910941E-013
 0.910917E-013
 0.911042E-013
 0.910494E-013
 0.912497E-013
 0.906636E-013
 0.919722E-013
 0.920673E-013
 0.906152E-013
 0.912676E-013
 0.910443E-013
 0.911054E-013
 0.910915E-013
 0.910942E-013
 0.910938E-013
 0.910938E-013
 0.910938E-013
 0.910938E-013
 0.910938E-013
 0.910938E-013
 0.910938E-013
 0.910938E-013
 0.910938E-013
 0.910938E-013
 0.910938E-013
 0.910939E-013
 0.910939E-013
 0.910939E-013
 0.910939E-013
 0.910939E-013
 0.910939E-013
 0.910939E-013
 0.910939E-013
 0.910939E-013
 0.910939E-013
 0.910939E-013
 0.910939E-013
 0.910939E-013
 0.910939E-013
 0.910939E-013
 0.910939E-013
 0.910939E-013
 0.910939E-013
 0.910939E-013
 0.910939E-013
 0.910940E-013
 0.910940E-013
 0.910940E-013
 0.910940E-013
 0.910940E-013
 0.910940E-013
 0.910940E-013
 0.910940E-013
 0.910940E-013
 0.910940E-013
 0.910940E-013
 0.910941E-013
 0.910941E-013
 0.910941E-013
 0.910941E-013
 0.910941E-013
 0.910941E-013
 0.910941E-013
 0.910941E-013
 0.910941E-013
 0.910941E-013
 0.910941E-013
 0.910941E-013
 0.910941E-013
 0.910941E-013
 0.910941E-013
 0.910941E-013
 0.910941E-013
 0.910941E-013
 0.910941E-013
 0.910941E-013
 0.910941E-013
 0.910941E-013
 0.910941E-013
 0.910941E-013
 0.910941E-013
 0.910941E-013
 0.910941E-013
 0.910941E-013
 0.910941E-013
 0.910941E-013
 0.910940E-013
 0.910940E-013
 0.910940E-013
 0.910940E-013
 0.910940E-013
 0.910940E-013
 0.910940E-013
 0.910940E-013
 0.910940E-013
 0.910940E-013
 0.910940E-013
 0.910939E-013
 0.910939E-013
 0.910939E-013
 0.910939E-013
 0.910939E-013
 0.910939E-013
 0.910939E-013
 0.910939E-013
 0.910939E-013
 0.910939E-013
 0.910939E-013
 0.910939E-013
 0.910939E-013
 0.910939E-013
 0.910939E-013
 0.910939E-013
 0.910939E-013
 0.910939E-013
 0.910939E-013
 0.910939E-013
 0.910939E-013
 0.910938E-013
 0.910938E-013
 0.910938E-013
 0.910938E-013
 0.910938E-013
 0.910938E-013
 0.910938E-013
 0.910938E-013
 0.910938E-013
 0.910938E-013
 0.910942E-013
 0.910916E-013
 0.911054E-013
 0.910443E-013
 0.912676E-013
 0.906153E-013
 0.920672E-013
 0.921620E-013
 0.905671E-013
 0.912854E-013
 0.910392E-013
 0.911066E-013
 0.910913E-013
 0.910943E-013
 0.910938E-013
 0.910938E-013
 0.910938E-013
 0.910938E-013
 0.910938E-013
 0.910938E-013
 0.910938E-013
 0.910938E-013
 0.910938E-013
 0.910938E-013
 0.910938E-013
 0.910938E-013
 0.910938E-013
 0.910938E-013
 0.910938E-013
 0.910938E-013
 0.910938E-013
 0.910938E-013
 0.910938E-013
 0.910939E-013
 0.910939E-013
 0.910939E-013
 0.910939E-013
 0.910939E-013
 0.910939E-013
 0.910939E-013
 0.910939E-013
 0.910939E-013
 0.910939E-013
 0.910939E-013
 0.910939E-013
 0.910939E-013
 0.910939E-013
 0.910940E-013
 0.910940E-013
 0.910940E-013
 0.910940E-013
 0.910940E-013
 0.910940E-013
 0.910940E-013
 0.910940E-013
 0.910940E-013
 0.910941E-013
 0.910941E-013
 0.910941E-013
 0.910941E-013
 0.910941E-013
 0.910941E-013
 0.910941E-013
 0.910941E-013
 0.910941E-013
 0.910941E-013
 0.910941E-013
 0.910941E-013
 0.910941E-013
 0.910941E-013
 0.910941E-013
 0.910941E-013
 0.910941E-013
 0.910941E-013
 0.910941E-013
 0.910941E-013
 0.910941E-013
 0.910941E-013
 0.910941E-013
 0.910941E-013
 0.910941E-013
 0.910941E-013
 0.910941E-013
 0.910941E-013
 0.910941E-013
 0.910941E-013
 0.910940E-013
 0.910940E-013
 0.910940E-013
 0.910940E-013
 0.910940E-013
 0.910940E-013
 0.910940E-013
 0.910940E-013
 0.910940E-013
 0.910939E-013
 0.910939E-013
 0.910939E-013
 0.910939E-013
 0.910939E-013
 0.910939E-013
 0.910939E-013
 0.910939E-013
 0.910939E-013
 0.910939E-013
 0.910939E-013
 0.910939E-013
 0.910939E-013
 0.910939E-013
 0.910939E-013
 0.910938E-013
 0.910938E-013
 0.910938E-013
 0.910938E-013
 0.910938E-013
 0.910938E-013
 0.910938E-013
 0.910938E-013
 0.910938E-013
 0.910938E-013
 0.910938E-013
 0.910938E-013
 0.910938E-013
 0.910938E-013
 0.910938E-013
 0.910938E-013
 0.910938E-013
 0.910938E-013
 0.910943E-013
 0.910913E-013
 0.911066E-013
 0.910392E-013
 0.912854E-013
 0.905671E-013
 0.921620E-013
 0.922564E-013
 0.905190E-013
 0.913032E-013
 0.910340E-013
 0.911078E-013
 0.910911E-013
 0.910943E-013
 0.910938E-013
 0.910938E-013
 0.910938E-013
 0.910938E-013
 0.910938E-013
 0.910938E-013
 0.910938E-013
 0.910938E-013
 0.910938E-013
 0.910938E-013
 0.910938E-013
 0.910938E-013
 0.910938E-013
 0.910938E-013
 0.910938E-013
 0.910938E-013
 0.910939E-013
 0.910939E-013
 0.910939E-013
 0.910939E-013
 0.910939E-013
 0.910939E-013
 0.910939E-013
 0.910939E-013
 0.910939E-013
 0.910939E-013
 0.910939E-013
 0.910939E-013
 0.910939E-013
 0.910939E-013
 0.910939E-013
 0.910940E-013
 0.910940E-013
 0.910940E-013
 0.910940E-013
 0.910940E-013
 0.910940E-013
 0.910940E-013
 0.910940E-013
 0.910941E-013
 0.910941E-013
 0.910941E-013