# vtk DataFile Version 3.0
Solution data
ASCII
DATASET STRUCTURED_GRID
DIMENSIONS 128 128 1
POINTS 16384  double
      0.000004      0.000004      0.000000
      0.000012      0.000004      0.000000
      0.000020      0.000004      0.000000
      0.000027      0.000004      0.000000
      0.000035      0.000004      0.000000
      0.000043      0.000004      0.000000
      0.000051      0.000004      0.000000
      0.000059      0.000004      0.000000
      0.000066      0.000004      0.000000
      0.000074      0.000004      0.000000
      0.000082      0.000004      0.000000
      0.000090      0.000004      0.000000
      0.000098      0.000004      0.000000
      0.000105      0.000004      0.000000
      0.000113      0.000004      0.000000
      0.000121      0.000004      0.000000
      0.000129      0.000004      0.000000
      0.000137      0.000004      0.000000
      0.000145      0.000004      0.000000
      0.000152      0.000004      0.000000
      0.000160      0.000004      0.000000
      0.000168      0.000004      0.000000
      0.000176      0.000004      0.000000
      0.000184      0.000004      0.000000
      0.000191      0.000004      0.000000
      0.000199      0.000004      0.000000
      0.000207      0.000004      0.000000
      0.000215      0.000004      0.000000
      0.000223      0.000004      0.000000
      0.000230      0.000004      0.000000
      0.000238      0.000004      0.000000
      0.000246      0.000004      0.000000
      0.000254      0.000004      0.000000
      0.000262      0.000004      0.000000
      0.000270      0.000004      0.000000
      0.000277      0.000004      0.000000
      0.000285      0.000004      0.000000
      0.000293      0.000004      0.000000
      0.000301      0.000004      0.000000
      0.000309      0.000004      0.000000
      0.000316      0.000004      0.000000
      0.000324      0.000004      0.000000
      0.000332      0.000004      0.000000
      0.000340      0.000004      0.000000
      0.000348      0.000004      0.000000
      0.000355      0.000004      0.000000
      0.000363      0.000004      0.000000
      0.000371      0.000004      0.000000
      0.000379      0.000004      0.000000
      0.000387      0.000004      0.000000
      0.000395      0.000004      0.000000
      0.000402      0.000004      0.000000
      0.000410      0.000004      0.000000
      0.000418      0.000004      0.000000
      0.000426      0.000004      0.000000
      0.000434      0.000004      0.000000
      0.000441      0.000004      0.000000
      0.000449      0.000004      0.000000
      0.000457      0.000004      0.000000
      0.000465      0.000004      0.000000
      0.000473      0.000004      0.000000
      0.000480      0.000004      0.000000
      0.000488      0.000004      0.000000
      0.000496      0.000004      0.000000
      0.000504      0.000004      0.000000
      0.000512      0.000004      0.000000
      0.000520      0.000004      0.000000
      0.000527      0.000004      0.000000
      0.000535      0.000004      0.000000
      0.000543      0.000004      0.000000
      0.000551      0.000004      0.000000
      0.000559      0.000004      0.000000
      0.000566      0.000004      0.000000
      0.000574      0.000004      0.000000
      0.000582      0.000004      0.000000
      0.000590      0.000004      0.000000
      0.000598      0.000004      0.000000
      0.000605      0.000004      0.000000
      0.000613      0.000004      0.000000
      0.000621      0.000004      0.000000
      0.000629      0.000004      0.000000
      0.000637      0.000004      0.000000
      0.000645      0.000004      0.000000
      0.000652      0.000004      0.000000
      0.000660      0.000004      0.000000
      0.000668      0.000004      0.000000
      0.000676      0.000004      0.000000
      0.000684      0.000004      0.000000
      0.000691      0.000004      0.000000
      0.000699      0.000004      0.000000
      0.000707      0.000004      0.000000
      0.000715      0.000004      0.000000
      0.000723      0.000004      0.000000
      0.000730      0.000004      0.000000
      0.000738      0.000004      0.000000
      0.000746      0.000004      0.000000
      0.000754      0.000004      0.000000
      0.000762      0.000004      0.000000
      0.000770      0.000004      0.000000
      0.000777      0.000004      0.000000
      0.000785      0.000004      0.000000
      0.000793      0.000004      0.000000
      0.000801      0.000004      0.000000
      0.000809      0.000004      0.000000
      0.000816      0.000004      0.000000
      0.000824      0.000004      0.000000
      0.000832      0.000004      0.000000
      0.000840      0.000004      0.000000
      0.000848      0.000004      0.000000
      0.000855      0.000004      0.000000
      0.000863      0.000004      0.000000
      0.000871      0.000004      0.000000
      0.000879      0.000004      0.000000
      0.000887      0.000004      0.000000
      0.000895      0.000004      0.000000
      0.000902      0.000004      0.000000
      0.000910      0.000004      0.000000
      0.000918      0.000004      0.000000
      0.000926      0.000004      0.000000
      0.000934      0.000004      0.000000
      0.000941      0.000004      0.000000
      0.000949      0.000004      0.000000
      0.000957      0.000004      0.000000
      0.000965      0.000004      0.000000
      0.000973      0.000004      0.000000
      0.000980      0.000004      0.000000
      0.000988      0.000004      0.000000
      0.000996      0.000004      0.000000
      0.000004      0.000012      0.000000
      0.000012      0.000012      0.000000
      0.000020      0.000012      0.000000
      0.000027      0.000012      0.000000
      0.000035      0.000012      0.000000
      0.000043      0.000012      0.000000
      0.000051      0.000012      0.000000
      0.000059      0.000012      0.000000
      0.000066      0.000012      0.000000
      0.000074      0.000012      0.000000
      0.000082      0.000012      0.000000
      0.000090      0.000012      0.000000
      0.000098      0.000012      0.000000
      0.000105      0.000012      0.000000
      0.000113      0.000012      0.000000
      0.000121      0.000012      0.000000
      0.000129      0.000012      0.000000
      0.000137      0.000012      0.000000
      0.000145      0.000012      0.000000
      0.000152      0.000012      0.000000
      0.000160      0.000012      0.000000
      0.000168      0.000012      0.000000
      0.000176      0.000012      0.000000
      0.000184      0.000012      0.000000
      0.000191      0.000012      0.000000
      0.000199      0.000012      0.000000
      0.000207      0.000012      0.000000
      0.000215      0.000012      0.000000
      0.000223      0.000012      0.000000
      0.000230      0.000012      0.000000
      0.000238      0.000012      0.000000
      0.000246      0.000012      0.000000
      0.000254      0.000012      0.000000
      0.000262      0.000012      0.000000
      0.000270      0.000012      0.000000
      0.000277      0.000012      0.000000
      0.000285      0.000012      0.000000
      0.000293      0.000012      0.000000
      0.000301      0.000012      0.000000
      0.000309      0.000012      0.000000
      0.000316      0.000012      0.000000
      0.000324      0.000012      0.000000
      0.000332      0.000012      0.000000
      0.000340      0.000012      0.000000
      0.000348      0.000012      0.000000
      0.000355      0.000012      0.000000
      0.000363      0.000012      0.000000
      0.000371      0.000012      0.000000
      0.000379      0.000012      0.000000
      0.000387      0.000012      0.000000
      0.000395      0.000012      0.000000
      0.000402      0.000012      0.000000
      0.000410      0.000012      0.000000
      0.000418      0.000012      0.000000
      0.000426      0.000012      0.000000
      0.000434      0.000012      0.000000
      0.000441      0.000012      0.000000
      0.000449      0.000012      0.000000
      0.000457      0.000012      0.000000
      0.000465      0.000012      0.000000
      0.000473      0.000012      0.000000
      0.000480      0.000012      0.000000
      0.000488      0.000012      0.000000
      0.000496      0.000012      0.000000
      0.000504      0.000012      0.000000
      0.000512      0.000012      0.000000
      0.000520      0.000012      0.000000
      0.000527      0.000012      0.000000
      0.000535      0.000012      0.000000
      0.000543      0.000012      0.000000
      0.000551      0.000012      0.000000
      0.000559      0.000012      0.000000
      0.000566      0.000012      0.000000
      0.000574      0.000012      0.000000
      0.000582      0.000012      0.000000
      0.000590      0.000012      0.000000
      0.000598      0.000012      0.000000
      0.000605      0.000012      0.000000
      0.000613      0.000012      0.000000
      0.000621      0.000012      0.000000
      0.000629      0.000012      0.000000
      0.000637      0.000012      0.000000
      0.000645      0.000012      0.000000
      0.000652      0.000012      0.000000
      0.000660      0.000012      0.000000
      0.000668      0.000012      0.000000
      0.000676      0.000012      0.000000
      0.000684      0.000012      0.000000
      0.000691      0.000012      0.000000
      0.000699      0.000012      0.000000
      0.000707      0.000012      0.000000
      0.000715      0.000012      0.000000
      0.000723      0.000012      0.000000
      0.000730      0.000012      0.000000
      0.000738      0.000012      0.000000
      0.000746      0.000012      0.000000
      0.000754      0.000012      0.000000
      0.000762      0.000012      0.000000
      0.000770      0.000012      0.000000
      0.000777      0.000012      0.000000
      0.000785      0.000012      0.000000
[...]
POINT_DATA 16384
SCALARS rhoe double
LOOKUP_TABLE default
 0.915924E-013
 0.912822E-013
 0.915300E-013
 0.915784E-013
 0.916855E-013
 0.917777E-013
 0.918727E-013
 0.919669E-013
 0.920610E-013
 0.921548E-013
 0.922482E-013
 0.923414E-013
 0.924343E-013
 0.925269E-013
 0.926191E-013
 0.927109E-013
 0.928024E-013
 0.928935E-013
 0.929841E-013
 0.930742E-013
 0.931638E-013
 0.932529E-013
 0.933413E-013
 0.934292E-013
 0.935164E-013
 0.936028E-013
 0.936885E-013
 0.937733E-013
 0.938572E-013
 0.939401E-013
 0.940221E-013
 0.941029E-013
 0.941825E-013
 0.942609E-013
 0.943380E-013
 0.944137E-013
 0.944879E-013
 0.945605E-013
 0.946314E-013
 0.947007E-013
 0.947680E-013
 0.948335E-013
 0.948969E-013
 0.949582E-013
 0.950173E-013
 0.950741E-013
 0.951286E-013
 0.951806E-013
 0.952300E-013
 0.952768E-013
 0.953209E-013
 0.953621E-013
 0.954006E-013
 0.954360E-013
 0.954685E-013
 0.954979E-013
 0.955242E-013
 0.955473E-013
 0.955672E-013
 0.955839E-013
 0.955972E-013
 0.956073E-013
 0.956140E-013
 0.956173E-013
 0.956173E-013
 0.956140E-013
 0.956073E-013
 0.955972E-013
 0.955839E-013
 0.955672E-013
 0.955473E-013
 0.955242E-013
 0.954979E-013
 0.954685E-013
 0.954360E-013
 0.954006E-013
 0.953621E-013
 0.953209E-013
 0.952768E-013
 0.952300E-013
 0.951806E-013
 0.951286E-013
 0.950741E-013
 0.950173E-013
 0.949582E-013
 0.948969E-013
 0.948335E-013
 0.947680E-013
 0.947007E-013
 0.946314E-013
 0.945605E-013
 0.944879E-013
 0.944137E-013
 0.943380E-013
 0.942609E-013
 0.941825E-013
 0.941029E-013
 0.940221E-013
 0.939401E-013
 0.938572E-013
 0.937733E-013
 0.936885E-013
 0.936028E-013
 0.935164E-013
 0.934292E-013
 0.933413E-013
 0.932529E-013
 0.931638E-013
 0.930742E-013
 0.929840E-013
 0.928934E-013
 0.928024E-013
 0.927109E-013
 0.926191E-013
 0.925269E-013
 0.924343E-013
 0.923414E-013
 0.922482E-013
 0.921547E-013
 0.920610E-013
 0.919669E-013
 0.918727E-013
 0.917777E-013
 0.916855E-013
 0.915784E-013
 0.915300E-013
 0.912822E-013
 0.915924E-013
 0.912822E-013
 0.908177E-013
 0.909519E-013
 0.908393E-013
 0.908071E-013
 0.907537E-013
 0.907052E-013
 0.906559E-013
 0.906069E-013
 0.905581E-013
 0.905094E-013
 0.904608E-013
 0.904124E-013
 0.903642E-013
 0.903161E-013
 0.902683E-013
 0.902206E-013
 0.901732E-013
 0.901260E-013
 0.900791E-013
 0.900324E-013
 0.899860E-013
 0.899399E-013
 0.898942E-013
 0.898488E-013
 0.898038E-013
 0.897591E-013
 0.897150E-013
 0.896713E-013
 0.896280E-013
 0.895854E-013
 0.895433E-013
 0.895018E-013
 0.894609E-013
 0.894208E-013
 0.893814E-013
 0.893427E-013
 0.893049E-013
 0.892679E-013
 0.892319E-013
 0.891968E-013
 0.891627E-013
 0.891296E-013
 0.890977E-013
 0.890668E-013
 0.890372E-013
 0.890089E-013
 0.889818E-013
 0.889560E-013
 0.889316E-013
 0.889086E-013
 0.888871E-013
 0.888671E-013
 0.888486E-013
 0.888317E-013
 0.888164E-013
 0.888026E-013
 0.887906E-013
 0.887802E-013
 0.887715E-013
 0.887646E-013
 0.887594E-013
 0.887559E-013
 0.887541E-013
 0.887541E-013
 0.887559E-013
 0.887594E-013
 0.887646E-013
 0.887716E-013
 0.887802E-013
 0.887906E-013
 0.888027E-013
 0.888164E-013
 0.888317E-013
 0.888486E-013
 0.888671E-013
 0.888872E-013
 0.889087E-013
 0.889317E-013
 0.889561E-013
 0.889818E-013
 0.890089E-013
 0.890373E-013
 0.890669E-013
 0.890977E-013
 0.891297E-013
 0.891627E-013
 0.891968E-013
 0.892319E-013
 0.892680E-013
 0.893049E-013
 0.893428E-013
 0.893814E-013
 0.894209E-013
 0.894610E-013
 0.895019E-013
 0.895433E-013
 0.895854E-013
 0.896281E-013
 0.896713E-013
 0.897150E-013
 0.897592E-013
 0.898038E-013
 0.898488E-013
 0.898942E-013
 0.899400E-013
 0.899861E-013
 0.900325E-013
 0.900791E-013
 0.901261E-013
 0.901733E-013
 0.902207E-013
 0.902683E-013
 0.903162E-013
 0.903642E-013
 0.904125E-013
 0.904608E-013
 0.905094E-013
 0.905581E-013
 0.906070E-013
 0.906560E-013
 0.907053E-013
 0.907537E-013
 0.908071E-013
 0.908394E-013
 0.909519E-013
 0.908177E-013
 0.912822E-013
 0.915300E-013
 0.909519E-013
 0.912323E-013
 0.911619E-013
 0.912055E-013
 0.912186E-013
 0.912385E-013
 0.912571E-013
 0.912758E-013
 0.912944E-013
 0.913129E-013
 0.913314E-013
 0.913499E-013
 0.913683E-013
 0.913866E-013
 0.914048E-013
 0.914229E-013
 0.914410E-013
 0.914590E-013
 0.914768E-013
 0.914946E-013
 0.915123E-013
 0.915298E-013
 0.915472E-013
 0.915645E-013
 0.915816E-013
 0.915986E-013
 0.916154E-013
 0.916321E-013
 0.916485E-013
 0.916648E-013
 0.916808E-013
 0.916966E-013
 0.917121E-013
 0.917274E-013
 0.917424E-013
 0.917571E-013
 0.917715E-013
 0.917855E-013
 0.917993E-013
 0.918126E-013
 0.918256E-013
 0.918382E-013
 0.918503E-013
 0.918620E-013
 0.918733E-013
 0.918841E-013
 0.918944E-013
 0.919042E-013
 0.919135E-013
 0.919222E-013
 0.919304E-013
 0.919380E-013
 0.919450E-013
 0.919515E-013
 0.919573E-013
 0.919625E-013
 0.919671E-013
 0.919710E-013
 0.919743E-013
 0.919770E-013
 0.919790E-013
 0.919803E-013
 0.919810E-013
 0.919810E-013
 0.919803E-013
 0.919790E-013
 0.919770E-013
 0.919743E-013
 0.919710E-013
 0.919671E-013
 0.919625E-013
 0.919573E-013
 0.919515E-013
 0.919450E-013
 0.919380E-013
 0.919304E-013
 0.919222E-013
 0.919134E-013
 0.919042E-013
 0.918944E-013
 0.918841E-013
 0.918733E-013
 0.918620E-013
 0.918503E-013
 0.918381E-013
 0.918255E-013
 0.918126E-013
 0.917992E-013
 0.917855E-013
 0.917714E-013
 0.917570E-013
 0.917423E-013
 0.917273E-013
 0.917121E-013
 0.916965E-013
 0.916807E-013
 0.916647E-013
 0.916485E-013
 0.916320E-013
 0.916154E-013
 0.915986E-013
 0.915816E-013
 0.915645E-013
 0.915472E-013
 0.915298E-013
 0.915122E-013
 0.914946E-013
 0.914768E-013
 0.914589E-013
 0.914410E-013
 0.914229E-013
 0.914048E-013
 0.913865E-013
 0.913682E-013
 0.913499E-013
 0.913314E-013
 0.913129E-013
 0.912944E-013
 0.912757E-013
 0.912570E-013
 0.912385E-013
 0.912186E-013
 0.912055E-013
 0.911619E-013
 0.912323E-013
 0.909519E-013
 0.915300E-013
 0.915784E-013
 0.908393E-013
 0.911619E-013
 0.910428E-013
 0.910688E-013
 0.910558E-013
 0.910517E-013
 0.910459E-013
 0.910403E-013
 0.910348E-013
 0.910293E-013
 0.910238E-013
 0.910183E-013
 0.910128E-013
 0.910074E-013
 0.910019E-013
 0.909965E-013
 0.909912E-013
 0.909858E-013
 0.909805E-013
 0.909752E-013
 0.909700E-013
 0.909648E-013
 0.909596E-013
 0.909545E-013
 0.909494E-013
 0.909443E-013
 0.909393E-013
 0.909344E-013
 0.909295E-013
 0.909247E-013
 0.909199E-013
 0.909152E-013
 0.909106E-013
 0.909061E-013
 0.909016E-013
 0.908972E-013
 0.908930E-013
 0.908888E-013
 0.908847E-013
 0.908808E-013
 0.908769E-013
 0.908732E-013
 0.908696E-013
 0.908661E-013
 0.908627E-013
 0.908595E-013
 0.908565E-013
 0.908536E-013
 0.908508E-013
 0.908482E-013
 0.908458E-013
 0.908436E-013
 0.908415E-013
 0.908396E-013
 0.908378E-013
 0.908363E-013
 0.908349E-013
 0.908338E-013
 0.908328E-013
 0.908320E-013
 0.908314E-013
 0.908310E-013
 0.908308E-013
 0.908308E-013
 0.908310E-013
 0.908314E-013
 0.908320E-013
 0.908328E-013
 0.908338E-013
 0.908349E-013
 0.908363E-013
 0.908378E-013
 0.908396E-013
 0.908415E-013
 0.908436E-013
 0.908458E-013
 0.908483E-013
 0.908508E-013
 0.908536E-013
 0.908565E-013
 0.908596E-013
 0.908628E-013
 0.908661E-013
 0.908696E-013
 0.908732E-013
 0.908769E-013
 0.908808E-013
 0.908847E-013
 0.908888E-013
 0.908930E-013
 0.908973E-013
 0.909016E-013
 0.909061E-013
 0.909106E-013
 0.909152E-013
 0.909199E-013
 0.909247E-013
 0.909295E-013
 0.909344E-013
 0.909393E-013
 0.909443E-013
 0.909494E-013
 0.909545E-013
 0.909596E-013
 0.909648E-013
 0.909700E-013
 0.909752E-013
 0.909805E-013
 0.909858E-013
 0.909912E-013
 0.909966E-013
 0.910020E-013
 0.910074E-013
 0.910128E-013
 0.910183E-013
 0.910238E-013
 0.910293E-013
 0.910348E-013
 0.910403E-013
 0.910459E-013
 0.910517E-013
 0.910558E-013
 0.910688E-013
 0.910428E-013
 0.911619E-013
 0.908394E-013
 0.915784E-013
 0.916855E-013
 0.908071E-013
 0.912055E-013
 0.910688E-013
 0.911088E-013
 0.911012E-013
 0.911043E-013
 0.911054E-013
 0.911068E-013
 0.911081E-013
 0.911095E-013
 0.911108E-013
 0.911121E-013
 0.911135E-013
 0.911148E-013
 0.911161E-013
 0.911174E-013
 0.911187E-013
 0.911200E-013
 0.911213E-013
 0.911226E-013
 0.911239E-013
 0.911252E-013
 0.911264E-013
 0.911277E-013
 0.911289E-013
 0.911301E-013
 0.911313E-013
 0.911326E-013
 0.911337E-013
 0.911349E-013
 0.911361E-013
 0.911372E-013
 0.911383E-013
 0.911395E-013
 0.911405E-013
 0.911416E-013
 0.911426E-013
 0.911437E-013
 0.911447E-013
 0.911456E-013
 0.911466E-013
 0.911475E-013
 0.911484E-013
 0.911492E-013
 0.911500E-013
 0.911508E-013
 0.911516E-013
 0.911523E-013
 0.911529E-013
 0.911536E-013
 0.911542E-013
 0.911547E-013
 0.911552E-013
 0.911557E-013
 0.911561E-013
 0.911565E-013
 0.911568E-013
 0.911571E-013
 0.911574E-013
 0.911576E-013
 0.911577E-013
 0.911578E-013
 0.911579E-013
 0.911579E-013
 0.911578E-013
 0.911577E-013
 0.911576E-013
 0.911574E-013
 0.911571E-013
 0.911568E-013
 0.911565E-013
 0.911561E-013
 0.911557E-013
 0.911552E-013
 0.911547E-013
 0.911542E-013
 0.911536E-013
 0.911529E-013
 0.911523E-013
 0.911516E-013
 0.911508E-013
 0.911500E-013
 0.911492E-013
 0.911484E-013
 0.911475E-013
 0.911466E-013
 0.911456E-013
 0.911447E-013
 0.911437E-013
 0.911426E-013
 0.911416E-013
 0.911405E-013
 0.911395E-013
 0.911383E-013
 0.911372E-013
 0.911361E-013
 0.911349E-013
 0.911337E-013
 0.911326E-013
 0.911313E-013
 0.911301E-013
 0.911289E-013
 0.911277E-013
 0.911264E-013
 0.911251E-013
 0.911239E-013
 0.911226E-013
 0.911213E-013
 0.911200E-013
 0.911187E-013
 0.911174E-013
 0.911161E-013
 0.911148E-013
 0.911135E-013
 0.911121E-013
 0.911108E-013
 0.911094E-013
 0.911081E-013
 0.911068E-013
 0.911054E-013
 0.911043E-013
 0.911012E-013
 0.911088E-013
 0.910688E-013
 0.912055E-013
 0.908071E-013
 0.916855E-013
 0.917777E-013
 0.907537E-013
 0.912186E-013
 0.910558E-013
 0.911012E-013
 0.910902E-013
 0.910921E-013
 0.910914E-013
 0.910912E-013
 0.910909E-013
 0.910906E-013
 0.910904E-013
 0.910901E-013
 0.910898E-013
 0.910895E-013
 0.910893E-013
 0.910890E-013
 0.910887E-013
 0.910885E-013
 0.910882E-013
 0.910879E-013
 0.910877E-013
 0.910874E-013
 0.910872E-013
 0.910869E-013
 0.910866E-013
 0.910864E-013
 0.910862E-013
 0.910859E-013
 0.910857E-013
 0.910854E-013
 0.910852E-013
 0.910850E-013
 0.910847E-013
 0.910845E-013
 0.910843E-013
 0.910841E-013
 0.910839E-013
 0.910837E-013
 0.910835E-013
 0.910833E-013
 0.910831E-013
 0.910829E-013
 0.910827E-013
 0.910826E-013
 0.910824E-013
 0.910822E-013
 0.910821E-013
 0.910820E-013
 0.910818E-013
 0.910817E-013
 0.910816E-013
 0.910815E-013
 0.910814E-013
 0.910813E-013
 0.910812E-013
 0.910811E-013
 0.910811E-013
 0.910810E-013
 0.910810E-013
 0.910809E-013
 0.910809E-013
 0.910809E-013
 0.910809E-013
 0.910809E-013
 0.910809E-013
 0.910809E-013
 0.910809E-013
 0.910810E-013
 0.910810E-013
 0.910811E-013
 0.910811E-013
 0.910812E-013
 0.910813E-013
 0.910814E-013
 0.910815E-013
 0.910816E-013
 0.910817E-013
 0.910818E-013
 0.910820E-013
 0.910821E-013
 0.910822E-013
 0.910824E-013
 0.910826E-013
 0.910827E-013
 0.910829E-013
 0.910831E-013
 0.910833E-013
 0.910835E-013
 0.910837E-013
 0.910839E-013
 0.910841E-013
 0.910843E-013
 0.910845E-013
 0.910847E-013
 0.910850E-013
 0.910852E-013
 0.910854E-013
 0.910857E-013
 0.910859E-013
 0.910862E-013
 0.910864E-013
 0.910867E-013
 0.910869E-013
 0.910872E-013
 0.910874E-013
 0.910877E-013
 0.910879E-013
 0.910882E-013
 0.910885E-013
 0.910887E-013
 0.910890E-013
 0.910893E-013
 0.910895E-013
 0.910898E-013
 0.910901E-013
 0.910904E-013
 0.910906E-013
 0.910909E-013
 0.910912E-013
 0.910914E-013
 0.910921E-013
 0.910902E-013
 0.911012E-013
 0.910558E-013
 0.912186E-013
 0.907538E-013
 0.917777E-013
 0.918727E-013
 0.907052E-013
 0.912385E-013
 0.910517E-013
 0.911043E-013
 0.910921E-013
 0.910946E-013
 0.910942E-013
 0.910943E-013
 0.910943E-013
 0.910944E-013
 0.910944E-013
 0.910945E-013
 0.910945E-013
 0.910946E-013
 0.910946E-013
 0.910947E-013
 0.910947E-013
 0.910948E-013
 0.910948E-013
 0.910949E-013
 0.910949E-013
 0.910950E-013
 0.910950E-013
 0.910951E-013
 0.910951E-013
 0.910952E-013
 0.910952E-013
 0.910953E-013
 0.910953E-013
 0.910953E-013
 0.910954E-013
 0.910954E-013
 0.910955E-013
 0.910955E-013
 0.910956E-013
 0.910956E-013
 0.910957E-013
 0.910957E-013
 0.910957E-013
 0.910958E-013
 0.910958E-013
 0.910959E-013
 0.910959E-013
 0.910959E-013
 0.910960E-013
 0.910960E-013
 0.910960E-013
 0.910961E-013
 0.910961E-013
 0.910961E-013
 0.910962E-013
 0.910962E-013
 0.910962E-013
 0.910962E-013
 0.910963E-013
 0.910963E-013
 0.910963E-013
 0.910963E-013
 0.910963E-013
 0.910963E-013
 0.910963E-013
 0.910963E-013
 0.910963E-013
 0.910963E-013
 0.910963E-013
 0.910963E-013
 0.910963E-013
 0.910963E-013
 0.910963E-013
 0.910963E-013
 0.910963E-013
 0.910963E-013
 0.910962E-013
 0.910962E-013
 0.910962E-013
 0.910962E-013
 0.910961E-013
 0.910961E-013
 0.910961E-013
 0.910960E-013
 0.910960E-013
 0.910960E-013
 0.910959E-013
 0.910959E-013
 0.910959E-013
 0.910958E-013
 0.910958E-013
 0.910957E-013
 0.910957E-013
 0.910957E-013
 0.910956E-013
 0.910956E-013
 0.910955E-013
 0.910955E-013
 0.910954E-013
 0.910954E-013
 0.910954E-013
 0.910953E-013
 0.910953E-013
 0.910952E-013
 0.910952E-013
 0.910951E-013
 0.910951E-013
 0.910950E-013
 0.910950E-013
 0.910949E-013
 0.910949E-013
 0.910948E-013
 0.910948E-013
 0.910947E-013
 0.910947E-013
 0.910946E-013
 0.910946E-013
 0.910945E-013
 0.910945E-013
 0.910944E-013
 0.910944E-013
 0.910943E-013
 0.910943E-013
 0.910942E-013
 0.910946E-013
 0.910921E-013
 0.911043E-013
 0.910517E-013
 0.912385E-013
 0.907053E-013
 0.918727E-013
 0.919669E-013
 0.906559E-013
 0.912571E-013
 0.910459E-013
 0.911054E-013
 0.910914E-013
 0.910942E-013
 0.910937E-013
 0.910938E-013
 0.910937E-013
 0.910937E-013
 0.910937E-013
 0.910937E-013
 0.910937E-013
 0.910937E-013
 0.910937E-013
 0.910937E-013
 0.910937E-013
 0.910937E-013
 0.910937E-013
 0.910937E-013
 0.910937E-013
 0.910937E-013
 0.910937E-013
 0.910937E-013
 0.910936E-013
 0.910936E-013
 0.910936E-013
 0.910936E-013
 0.910936E-013
 0.910936E-013
 0.910936E-013
 0.910936E-013
 0.910936E-013
 0.910936E-013
 0.910936E-013
 0.910936E-013
 0.910936E-013
 0.910936E-013
 0.910936E-013
 0.910936E-013
 0.910936E-013
 0.910936E-013
 0.910936E-013
 0.910936E-013
 0.910936E-013
 0.910936E-013
 0.910936E-013
 0.910936E-013
 0.910936E-013
 0.910936E-013
 0.910937E-013
 0.910937E-013
 0.910937E-013
 0.910937E-013
 0.910937E-013
 0.910937E-013
 0.910937E-013
 0.910937E-013
 0.910937E-013
 0.910937E-013
 0.910937E-013
 0.910937E-013
 0.910937E-013
 0.910937E-013
 0.910937E-013
 0.910937E-013
 0.910937E-013
 0.910937E-013
 0.910937E-013
 0.910937E-013
 0.910937E-013
 0.910937E-013
 0.910937E-013
 0.910937E-013
 0.910937E-013
 0.910937E-013
 0.910936E-013
 0.910936E-013
 0.910936E-013
 0.910936E-013
 0.910936E-013
 0.910936E-013
 0.910936E-013
 0.910936E-013
 0.910936E-013
 0.910936E-013
 0.910936E-013
 0.910936E-013
 0.910936E-013
 0.910936E-013
 0.910936E-013
 0.910936E-013
 0.910936E-013
 0.910936E-013
 0.910936E-013
 0.910936E-013
 0.910936E-013
 0.910936E-013
 0.910936E-013
 0.910936E-013
 0.910936E-013
 0.910936E-013
 0.910937E-013
 0.910937E-013
 0.910937E-013
 0.910937E-013
 0.910937E-013
 0.910937E-013
 0.910937E-013
 0.910937E-013
 0.910937E-013
 0.910937E-013
 0.910937E-013
 0.910937E-013
 0.910937E-013
 0.910937E-013
 0.910937E-013
 0.910938E-013
 0.910938E-013
 0.910937E-013
 0.910942E-013
 0.910914E-013
 0.911054E-013
 0.910459E-013
 0.912570E-013
 0.906560E-013
 0.919669E-013
 0.920610E-013
 0.906069E-013
 0.912758E-013
 0.910403E-013
 0.911068E-013
 0.910912E-013
 0.910943E-013
 0.910938E-013
 0.910939E-013
 0.910938E-013
 0.910938E-013
 0.910938E-013
 0.910938E-013
 0.910938E-013
 0.910938E-013
 0.910939E-013
 0.910939E-013
 0.910939E-013
 0.910939E-013
 0.910939E-013
 0.910939E-013
 0.910939E-013
 0.910939E-013
 0.910939E-013
 0.910939E-013
 0.910939E-013
 0.910939E-013
 0.910939E-013
 0.910939E-013
 0.910939E-013
 0.910939E-013
 0.910939E-013
 0.910939E-013
 0.910939E-013
 0.910939E-013
 0.910939E-013
 0.910939E-013
 0.910939E-013
 0.910940E-013
 0.910940E-013
 0.910940E-013
 0.910940E-013
 0.910940E-013
 0.910940E-013
 0.910940E-013
 0.910940E-013
 0.910940E-013
 0.910940E-013
 0.910940E-013
 0.910941E-013
 0.910941E-013
 0.910941E-013
 0.910941E-013
 0.910941E-013
 0.910941E-013
 0.910941E-013
 0.910941E-013
 0.910941E-013
 0.910941E-013
 0.910941E-013
 0.910941E-013
 0.910941E-013
 0.910941E-013
 0.910941E-013
 0.910941E-013
 0.910941E-013
 0.910941E-013
 0.910941E-013
 0.910941E-013
 0.910941E-013
 0.910941E-013
 0.910941E-013
 0.910941E-013
 0.910941E-013
 0.910941E-013
 0.910941E-013
 0.910941E-013
 0.910941E-013
 0.910941E-013
 0.910940E-013
 0.910940E-013
 0.910940E-013
 0.910940E-013
 0.910940E-013
 0.910940E-013
 0.910940E-013
 0.910940E-013
 0.910940E-013
 0.910940E-013
 0.910940E-013
 0.910939E-013
 0.910939E-013
 0.910939E-013
 0.910939E-013
 0.910939E-013
 0.910939E-013
 0.910939E-013
 0.910939E-013
 0.910939E-013
 0.910939E-013
 0.910939E-013
 0.910939E-013
 0.910939E-013
 0.910939E-013
 0.910939E-013
 0.910939E-013
 0.910939E-013
 0.910939E-013
 0.910939E-013
 0.910939E-013
 0.910939E-013
 0.910939E-013
 0.910939E-013
 0.910939E-013
 0.910938E-013
 0.910938E-013
 0.910938E-013
 0.910938E-013
 0.910938E-013
 0.910939E-013
 0.910938E-013
 0.910943E-013
 0.910912E-013
 0.911068E-013
 0.910403E-013
 0.912757E-013
 0.906070E-013
 0.920610E-013
 0.921548E-013
 0.905581E-013
 0.912944E-013
 0.910348E-013
 0.911081E-013
 0.910909E-013
 0.910943E-013
 0.910937E-013
 0.910938E-013
 0.910938E-013
 0.910938E-013
 0.910938E-013
 0.910938E-013
 0.910938E-013
 0.910938E-013
 0.910938E-013
 0.910938E-013
 0.910938E-013
 0.910938E-013
 0.910938E-013
 0.910938E-013
 0.910938E-013
 0.910938E-013
 0.910938E-013
 0.910938E-013
 0.910938E-013
 0.910939E-013
 0.910939E-013
 0.910939E-013
 0.910939E-013
 0.910939E-013
 0.910939E-013
 0.910939E-013
 0.910939E-013
 0.910939E-013
 0.910939E-013
 0.910939E-013
 0.910939E-013
 0.910939E-013
 0.910939E-013
 0.910939E-013
 0.910940E-013
 0.910940E-013
 0.910940E-013
 0.910940E-013
 0.910940E-013
 0.910940E-013
 0.910940E-013
 0.910940E-013
 0.910940E-013
 0.910940E-013
 0.910941E-013
 0.910941E-013
 0.910941E-013
 0.910941E-013
 0.910941E-013
 0.910941E-013
 0.910941E-013
 0.910941E-013
 0.910941E-013
 0.910941E-013
 0.910941E-013
 0.910941E-013
 0.910941E-013
 0.910941E-013
 0.910941E-013
 0.910941E-013
 0.910941E-013
 0.910941E-013
 0.910941E-013
 0.910941E-013
 0.910941E-013
 0.910941E-013
 0.910941E-013
 0.910941E-013
 0.910941E-013
 0.910941E-013
 0.910940E-013
 0.910940E-013
 0.910940E-013
 0.910940E-013
 0.910940E-013
 0.910940E-013
 0.910940E-013
 0.910940E-013
 0.910940E-013
 0.910940E-013
 0.910939E-013
 0.910939E-013
 0.910939E-013
 0.910939E-013
 0.910939E-013
 0.910939E-013
 0.910939E-013
 0.910939E-013
 0.910939E-013
 0.910939E-013
 0.910939E-013
 0.910939E-013
 0.910939E-013
 0.910939E-013
 0.910939E-013
 0.910939E-013
 0.910938E-013
 0.910938E-013
 0.910938E-013
 0.910938E-013
 0.910938E-013
 0.910938E-013
 0.910938E-013
 0.910938E-013
 0.910938E-013
 0.910938E-013
 0.910938E-013
 0.910938E-013
 0.910938E-013
 0.910938E-013
 0.910938E-013
 0.910938E-013
 0.910938E-013
 0.910938E-013
 0.910943E-013
 0.910909E-013
 0.911081E-013
 0.910348E-013
 0.912944E-013
 0.905581E-013
 0.921548E-013
 0.922482E-013
 0.905094E-013
 0.913129E-013
 0.910293E-013
 0.911095E-013
 0.910906E-013
 0.910944E-013
 0.910937E-013
 0.910938E-013
 0.910938E-013
 0.910938E-013
 0.910938E-013
 0.910938E-013
 0.910938E-013
 0.910938E-013
 0.910938E-013
 0.910938E-013
 0.910938E-013
 0.910938E-013
 0.910938E-013
 0.910938E-013
 0.910938E-013
 0.910938E-013
 0.910939E-013
 0.910939E-013
 0.910939E-013
 0.910939E-013
 0.910939E-013
 0.910939E-013
 0.910939E-013
 0.910939E-013
 0.910939E-013
 0.910939E-013
 0.910939E-013
 0.910939E-013
 0.910939E-013
 0.910939E-013
 0.910939E-013
 0.910940E-013
 0.910940E-013
 0.910940E-013
 0.910940E-013
 0.910940E-013
 0.910940E-013
 0.910940E-013
 0.910940E-013
 0.910940E-013
 0.910941E-013
 0.910941E-013