# vtk DataFile Version 3.0
Solution data
ASCII
DATASET STRUCTURED_GRID
DIMENSIONS 128 128 1
POINTS 16384  double
      0.000004      0.000004      0.000000
      0.000012      0.000004      0.000000
      0.000020      0.000004      0.000000
      0.000027      0.000004      0.000000
      0.000035      0.000004      0.000000
      0.000043      0.000004      0.000000
      0.000051      0.000004      0.000000
      0.000059      0.000004      0.000000
      0.000066      0.000004      0.000000
      0.000074      0.000004      0.000000
      0.000082      0.000004      0.000000
      0.000090      0.000004      0.000000
      0.000098      0.000004      0.000000
      0.000105      0.000004      0.000000
      0.000113      0.000004      0.000000
      0.000121      0.000004      0.000000
      0.000129      0.000004      0.000000
      0.000137      0.000004      0.000000
      0.000145      0.000004      0.000000
      0.000152      0.000004      0.000000
      0.000160      0.000004      0.000000
      0.000168      0.000004      0.000000
      0.000176      0.000004      0.000000
      0.000184      0.000004      0.000000
      0.000191      0.000004      0.000000
      0.000199      0.000004      0.000000
      0.000207      0.000004      0.000000
      0.000215      0.000004      0.000000
      0.000223      0.000004      0.000000
      0.000230      0.000004      0.000000
      0.000238      0.000004      0.000000
      0.000246      0.000004      0.000000
      0.000254      0.000004      0.000000
      0.000262      0.000004      0.000000
      0.000270      0.000004      0.000000
      0.000277      0.000004      0.000000
      0.000285      0.000004      0.000000
      0.000293      0.000004      0.000000
      0.000301      0.000004      0.000000
      0.000309      0.000004      0.000000
      0.000316      0.000004      0.000000
      0.000324      0.000004      0.000000
      0.000332      0.000004      0.000000
      0.000340      0.000004      0.000000
      0.000348      0.000004      0.000000
      0.000355      0.000004      0.000000
      0.000363      0.000004      0.000000
      0.000371      0.000004      0.000000
      0.000379      0.000004      0.000000
      0.000387      0.000004      0.000000
      0.000395      0.000004      0.000000
      0.000402      0.000004      0.000000
      0.000410      0.000004      0.000000
      0.000418      0.000004      0.000000
      0.000426      0.000004      0.000000
      0.000434      0.000004      0.000000
      0.000441      0.000004      0.000000
      0.000449      0.000004      0.000000
      0.000457      0.000004      0.000000
      0.000465      0.000004      0.000000
      0.000473      0.000004      0.000000
      0.000480      0.000004      0.000000
      0.000488      0.000004      0.000000
      0.000496      0.000004      0.000000
      0.000504      0.000004      0.000000
      0.000512      0.000004      0.000000
      0.000520      0.000004      0.000000
      0.000527      0.000004      0.000000
      0.000535      0.000004      0.000000
      0.000543      0.000004      0.000000
      0.000551      0.000004      0.000000
      0.000559      0.000004      0.000000
      0.000566      0.000004      0.000000
      0.000574      0.000004      0.000000
      0.000582      0.000004      0.000000
      0.000590      0.000004      0.000000
      0.000598      0.000004      0.000000
      0.000605      0.000004      0.000000
      0.000613      0.000004      0.000000
      0.000621      0.000004      0.000000
      0.000629      0.000004      0.000000
      0.000637      0.000004      0.000000
      0.000645      0.000004      0.000000
      0.000652      0.000004      0.000000
      0.000660      0.000004      0.000000
      0.000668      0.000004      0.000000
      0.000676      0.000004      0.000000
      0.000684      0.000004      0.000000
      0.000691      0.000004      0.000000
      0.000699      0.000004      0.000000
      0.000707      0.000004      0.000000
      0.000715      0.000004      0.000000
      0.000723      0.000004      0.000000
      0.000730      0.000004      0.000000
      0.000738      0.000004      0.000000
      0.000746      0.000004      0.000000
      0.000754      0.000004      0.000000
      0.000762      0.000004      0.000000
      0.000770      0.000004      0.000000
      0.000777      0.000004      0.000000
      0.000785      0.000004      0.000000
      0.000793      0.000004      0.000000
      0.000801      0.000004      0.000000
      0.000809      0.000004      0.000000
      0.000816      0.000004      0.000000
      0.000824      0.000004      0.000000
      0.000832      0.000004      0.000000
      0.000840      0.000004      0.000000
      0.000848      0.000004      0.000000
      0.000855      0.000004      0.000000
      0.000863      0.000004      0.000000
      0.000871      0.000004      0.000000
      0.000879      0.000004      0.000000
      0.000887      0.000004      0.000000
      0.000895      0.000004      0.000000
      0.000902      0.000004      0.000000
      0.000910      0.000004      0.000000
      0.000918      0.000004      0.000000
      0.000926      0.000004      0.000000
      0.000934      0.000004      0.000000
      0.000941      0.000004      0.000000
      0.000949      0.000004      0.000000
      0.000957      0.000004      0.000000
      0.000965      0.000004      0.000000
      0.000973      0.000004      0.000000
      0.000980      0.000004      0.000000
      0.000988      0.000004      0.000000
      0.000996      0.000004      0.000000
      0.000004      0.000012      0.000000
      0.000012      0.000012      0.000000
      0.000020      0.000012      0.000000
      0.000027      0.000012      0.000000
      0.000035      0.000012      0.000000
      0.000043      0.000012      0.000000
      0.000051      0.000012      0.000000
      0.000059      0.000012      0.000000
      0.000066      0.000012      0.000000
      0.000074      0.000012      0.000000
      0.000082      0.000012      0.000000
      0.000090      0.000012      0.000000
      0.000098      0.000012      0.000000
      0.000105      0.000012      0.000000
      0.000113      0.000012      0.000000
      0.000121      0.000012      0.000000
      0.000129      0.000012      0.000000
      0.000137      0.000012      0.000000
      0.000145      0.000012      0.000000
      0.000152      0.000012      0.000000
      0.000160      0.000012      0.000000
      0.000168      0.000012      0.000000
      0.000176      0.000012      0.000000
      0.000184      0.000012      0.000000
      0.000191      0.000012      0.000000
      0.000199      0.000012      0.000000
      0.000207      0.000012      0.000000
      0.000215      0.000012      0.000000
      0.000223      0.000012      0.000000
      0.000230      0.000012      0.000000
      0.000238      0.000012      0.000000
      0.000246      0.000012      0.000000
      0.000254      0.000012      0.000000
      0.000262      0.000012      0.000000
      0.000270      0.000012      0.000000
      0.000277      0.000012      0.000000
      0.000285      0.000012      0.000000
      0.000293      0.000012      0.000000
      0.000301      0.000012      0.000000
      0.000309      0.000012      0.000000
      0.000316      0.000012      0.000000
      0.000324      0.000012      0.000000
      0.000332      0.000012      0.000000
      0.000340      0.000012      0.000000
      0.000348      0.000012      0.000000
      0.000355      0.000012      0.000000
      0.000363      0.000012      0.000000
      0.000371      0.000012      0.000000
      0.000379      0.000012      0.000000
      0.000387      0.000012      0.000000
      0.000395      0.000012      0.000000
      0.000402      0.000012      0.000000
      0.000410      0.000012      0.000000
      0.000418      0.000012      0.000000
      0.000426      0.000012      0.000000
      0.000434      0.000012      0.000000
      0.000441      0.000012      0.000000
      0.000449      0.000012      0.000000
      0.000457      0.000012      0.000000
      0.000465      0.000012      0.000000
      0.000473      0.000012      0.000000
      0.000480      0.000012      0.000000
      0.000488      0.000012      0.000000
      0.000496      0.000012      0.000000
      0.000504      0.000012      0.000000
      0.000512      0.000012      0.000000
      0.000520      0.000012      0.000000
      0.000527      0.000012      0.000000
      0.000535      0.000012      0.000000
      0.000543      0.000012      0.000000
      0.000551      0.000012      0.000000
      0.000559      0.000012      0.000000
      0.000566      0.000012      0.000000
      0.000574      0.000012      0.000000
      0.000582      0.000012      0.000000
      0.000590      0.000012      0.000000
      0.000598      0.000012      0.000000
      0.000605      0.000012      0.000000
      0.000613      0.000012      0.000000
      0.000621      0.000012      0.000000
      0.000629      0.000012      0.000000
      0.000637      0.000012      0.000000
      0.000645      0.000012      0.000000
      0.000652      0.000012      0.000000
      0.000660      0.000012      0.000000
      0.000668      0.000012      0.000000
      0.000676      0.000012      0.000000
      0.000684      0.000012      0.000000
      0.000691      0.000012      0.000000
      0.000699      0.000012      0.000000
      0.000707      0.000012      0.000000
      0.000715      0.000012      0.000000
      0.000723      0.000012      0.000000
      0.000730      0.000012      0.000000
      0.000738      0.000012      0.000000
      0.000746      0.000012      0.000000
      0.000754      0.000012      0.000000
      0.000762      0.000012      0.000000
      0.000770      0.000012      0.000000
      0.000777      0.000012      0.000000
      0.000785      0.000012      0.000000
[...]
POINT_DATA 16384
SCALARS rhoe double
LOOKUP_TABLE default
 0.916808E-013
 0.911978E-013
 0.915569E-013
 0.915114E-013
 0.916355E-013
 0.916968E-013
 0.917783E-013
 0.918537E-013
 0.919304E-013
 0.920065E-013
 0.920825E-013
 0.921582E-013
 0.922336E-013
 0.923087E-013
 0.923835E-013
 0.924580E-013
 0.925322E-013
 0.926060E-013
 0.926793E-013
 0.927523E-013
 0.928248E-013
 0.928968E-013
 0.929684E-013
 0.930393E-013
 0.931097E-013
 0.931795E-013
 0.932485E-013
 0.933169E-013
 0.933845E-013
 0.934513E-013
 0.935172E-013
 0.935823E-013
 0.936463E-013
 0.937093E-013
 0.937712E-013
 0.938319E-013
 0.938914E-013
 0.939496E-013
 0.940065E-013
 0.940619E-013
 0.941158E-013
 0.941682E-013
 0.942189E-013
 0.942679E-013
 0.943151E-013
 0.943605E-013
 0.944039E-013
 0.944454E-013
 0.944848E-013
 0.945221E-013
 0.945572E-013
 0.945901E-013
 0.946207E-013
 0.946490E-013
 0.946748E-013
 0.946982E-013
 0.947191E-013
 0.947375E-013
 0.947533E-013
 0.947666E-013
 0.947772E-013
 0.947852E-013
 0.947905E-013
 0.947932E-013
 0.947932E-013
 0.947905E-013
 0.947852E-013
 0.947772E-013
 0.947666E-013
 0.947533E-013
 0.947375E-013
 0.947191E-013
 0.946982E-013
 0.946748E-013
 0.946490E-013
 0.946207E-013
 0.945901E-013
 0.945573E-013
 0.945221E-013
 0.944848E-013
 0.944454E-013
 0.944040E-013
 0.943605E-013
 0.943151E-013
 0.942679E-013
 0.942189E-013
 0.941682E-013
 0.941158E-013
 0.940619E-013
 0.940065E-013
 0.939497E-013
 0.938914E-013
 0.938319E-013
 0.937712E-013
 0.937093E-013
 0.936463E-013
 0.935823E-013
 0.935173E-013
 0.934514E-013
 0.933846E-013
 0.933170E-013
 0.932486E-013
 0.931795E-013
 0.931097E-013
 0.930394E-013
 0.929684E-013
 0.928969E-013
 0.928248E-013
 0.927523E-013
 0.926794E-013
 0.926060E-013
 0.925322E-013
 0.924580E-013
 0.923835E-013
 0.923087E-013
 0.922336E-013
 0.921582E-013
 0.920825E-013
 0.920065E-013
 0.919304E-013
 0.918537E-013
 0.917784E-013
 0.916968E-013
 0.916355E-013
 0.915115E-013
 0.915569E-013
 0.911978E-013
 0.916808E-013
 0.911978E-013
 0.907524E-013
 0.909420E-013
 0.907637E-013
 0.907623E-013
 0.906889E-013
 0.906411E-013
 0.905855E-013
 0.905322E-013
 0.904786E-013
 0.904253E-013
 0.903721E-013
 0.903192E-013
 0.902664E-013
 0.902139E-013
 0.901615E-013
 0.901095E-013
 0.900577E-013
 0.900061E-013
 0.899549E-013
 0.899039E-013
 0.898533E-013
 0.898031E-013
 0.897533E-013
 0.897038E-013
 0.896548E-013
 0.896062E-013
 0.895582E-013
 0.895107E-013
 0.894637E-013
 0.894174E-013
 0.893717E-013
 0.893266E-013
 0.892823E-013
 0.892388E-013
 0.891961E-013
 0.891542E-013
 0.891132E-013
 0.890732E-013
 0.890342E-013
 0.889963E-013
 0.889594E-013
 0.889237E-013
 0.888892E-013
 0.888559E-013
 0.888240E-013
 0.887934E-013
 0.887642E-013
 0.887364E-013
 0.887101E-013
 0.886854E-013
 0.886622E-013
 0.886406E-013
 0.886207E-013
 0.886025E-013
 0.885860E-013
 0.885713E-013
 0.885583E-013
 0.885471E-013
 0.885378E-013
 0.885303E-013
 0.885247E-013
 0.885209E-013
 0.885190E-013
 0.885190E-013
 0.885209E-013
 0.885247E-013
 0.885303E-013
 0.885378E-013
 0.885471E-013
 0.885583E-013
 0.885713E-013
 0.885860E-013
 0.886025E-013
 0.886207E-013
 0.886406E-013
 0.886622E-013
 0.886854E-013
 0.887101E-013
 0.887364E-013
 0.887642E-013
 0.887934E-013
 0.888240E-013
 0.888559E-013
 0.888892E-013
 0.889237E-013
 0.889594E-013
 0.889963E-013
 0.890342E-013
 0.890732E-013
 0.891132E-013
 0.891542E-013
 0.891961E-013
 0.892388E-013
 0.892823E-013
 0.893266E-013
 0.893717E-013
 0.894174E-013
 0.894637E-013
 0.895107E-013
 0.895582E-013
 0.896062E-013
 0.896548E-013
 0.897038E-013
 0.897533E-013
 0.898031E-013
 0.898534E-013
 0.899040E-013
 0.899549E-013
 0.900061E-013
 0.900577E-013
 0.901095E-013
 0.901616E-013
 0.902139E-013
 0.902664E-013
 0.903192E-013
 0.903721E-013
 0.904253E-013
 0.904786E-013
 0.905323E-013
 0.905855E-013
 0.906411E-013
 0.906889E-013
 0.907623E-013
 0.907637E-013
 0.909420E-013
 0.907524E-013
 0.911978E-013
 0.915569E-013
 0.909420E-013
 0.913454E-013
 0.911933E-013
 0.913003E-013
 0.913029E-013
 0.913420E-013
 0.913697E-013
 0.914005E-013
 0.914304E-013
 0.914604E-013
 0.914903E-013
 0.915200E-013
 0.915496E-013
 0.915790E-013
 0.916084E-013
 0.916376E-013
 0.916667E-013
 0.916956E-013
 0.917243E-013
 0.917529E-013
 0.917813E-013
 0.918095E-013
 0.918375E-013
 0.918652E-013
 0.918927E-013
 0.919200E-013
 0.919470E-013
 0.919736E-013
 0.920000E-013
 0.920260E-013
 0.920517E-013
 0.920770E-013
 0.921018E-013
 0.921263E-013
 0.921503E-013
 0.921738E-013
 0.921968E-013
 0.922193E-013
 0.922412E-013
 0.922625E-013
 0.922832E-013
 0.923033E-013
 0.923227E-013
 0.923414E-013
 0.923593E-013
 0.923765E-013
 0.923929E-013
 0.924086E-013
 0.924233E-013
 0.924372E-013
 0.924503E-013
 0.924624E-013
 0.924736E-013
 0.924838E-013
 0.924931E-013
 0.925014E-013
 0.925087E-013
 0.925150E-013
 0.925202E-013
 0.925244E-013
 0.925276E-013
 0.925297E-013
 0.925308E-013
 0.925308E-013
 0.925297E-013
 0.925276E-013
 0.925244E-013
 0.925202E-013
 0.925150E-013
 0.925087E-013
 0.925014E-013
 0.924931E-013
 0.924838E-013
 0.924736E-013
 0.924624E-013
 0.924503E-013
 0.924372E-013
 0.924233E-013
 0.924085E-013
 0.923929E-013
 0.923765E-013
 0.923593E-013
 0.923413E-013
 0.923227E-013
 0.923033E-013
 0.922832E-013
 0.922625E-013
 0.922412E-013
 0.922193E-013
 0.921968E-013
 0.921738E-013
 0.921503E-013
 0.921263E-013
 0.921018E-013
 0.920769E-013
 0.920517E-013
 0.920260E-013
 0.920000E-013
 0.919736E-013
 0.919469E-013
 0.919200E-013
 0.918927E-013
 0.918652E-013
 0.918375E-013
 0.918095E-013
 0.917813E-013
 0.917529E-013
 0.917243E-013
 0.916956E-013
 0.916666E-013
 0.916376E-013
 0.916084E-013
 0.915790E-013
 0.915495E-013
 0.915200E-013
 0.914902E-013
 0.914604E-013
 0.914304E-013
 0.914005E-013
 0.913697E-013
 0.913420E-013
 0.913029E-013
 0.913002E-013
 0.911933E-013
 0.913454E-013
 0.909420E-013
 0.915569E-013
 0.915114E-013
 0.907637E-013
 0.911933E-013
 0.909560E-013
 0.910369E-013
 0.909880E-013
 0.909852E-013
 0.909680E-013
 0.909549E-013
 0.909408E-013
 0.909270E-013
 0.909132E-013
 0.908994E-013
 0.908857E-013
 0.908721E-013
 0.908585E-013
 0.908450E-013
 0.908315E-013
 0.908182E-013
 0.908049E-013
 0.907917E-013
 0.907785E-013
 0.907655E-013
 0.907525E-013
 0.907397E-013
 0.907270E-013
 0.907144E-013
 0.907019E-013
 0.906895E-013
 0.906774E-013
 0.906653E-013
 0.906534E-013
 0.906417E-013
 0.906302E-013
 0.906189E-013
 0.906078E-013
 0.905969E-013
 0.905863E-013
 0.905759E-013
 0.905657E-013
 0.905559E-013
 0.905463E-013
 0.905370E-013
 0.905280E-013
 0.905194E-013
 0.905110E-013
 0.905031E-013
 0.904955E-013
 0.904882E-013
 0.904814E-013
 0.904750E-013
 0.904689E-013
 0.904633E-013
 0.904581E-013
 0.904534E-013
 0.904491E-013
 0.904453E-013
 0.904419E-013
 0.904390E-013
 0.904365E-013
 0.904346E-013
 0.904331E-013
 0.904322E-013
 0.904317E-013
 0.904317E-013
 0.904322E-013
 0.904331E-013
 0.904346E-013
 0.904366E-013
 0.904390E-013
 0.904419E-013
 0.904453E-013
 0.904491E-013
 0.904534E-013
 0.904581E-013
 0.904633E-013
 0.904689E-013
 0.904750E-013
 0.904814E-013
 0.904883E-013
 0.904955E-013
 0.905031E-013
 0.905111E-013
 0.905194E-013
 0.905280E-013
 0.905370E-013
 0.905463E-013
 0.905559E-013
 0.905657E-013
 0.905759E-013
 0.905863E-013
 0.905969E-013
 0.906078E-013
 0.906189E-013
 0.906302E-013
 0.906418E-013
 0.906535E-013
 0.906653E-013
 0.906774E-013
 0.906896E-013
 0.907019E-013
 0.907144E-013
 0.907270E-013
 0.907397E-013
 0.907526E-013
 0.907655E-013
 0.907785E-013
 0.907917E-013
 0.908049E-013
 0.908182E-013
 0.908316E-013
 0.908450E-013
 0.908585E-013
 0.908721E-013
 0.908857E-013
 0.908994E-013
 0.909132E-013
 0.909270E-013
 0.909408E-013
 0.909549E-013
 0.909680E-013
 0.909852E-013
 0.909880E-013
 0.910369E-013
 0.909560E-013
 0.911933E-013
 0.907637E-013
 0.915115E-013
 0.916355E-013
 0.907623E-013
 0.913003E-013
 0.910369E-013
 0.911574E-013
 0.911206E-013
 0.911396E-013
 0.911412E-013
 0.911477E-013
 0.911529E-013
 0.911584E-013
 0.911637E-013
 0.911691E-013
 0.911745E-013
 0.911798E-013
 0.911851E-013
 0.911904E-013
 0.911957E-013
 0.912009E-013
 0.912061E-013
 0.912113E-013
 0.912164E-013
 0.912215E-013
 0.912265E-013
 0.912316E-013
 0.912365E-013
 0.912415E-013
 0.912463E-013
 0.912512E-013
 0.912559E-013
 0.912606E-013
 0.912653E-013
 0.912699E-013
 0.912744E-013
 0.912788E-013
 0.912831E-013
 0.912874E-013
 0.912915E-013
 0.912956E-013
 0.912996E-013
 0.913034E-013
 0.913072E-013
 0.913108E-013
 0.913143E-013
 0.913177E-013
 0.913210E-013
 0.913241E-013
 0.913270E-013
 0.913299E-013
 0.913326E-013
 0.913351E-013
 0.913374E-013
 0.913396E-013
 0.913417E-013
 0.913435E-013
 0.913452E-013
 0.913467E-013
 0.913480E-013
 0.913491E-013
 0.913501E-013
 0.913509E-013
 0.913514E-013
 0.913518E-013
 0.913520E-013
 0.913520E-013
 0.913518E-013
 0.913514E-013
 0.913509E-013
 0.913501E-013
 0.913491E-013
 0.913480E-013
 0.913467E-013
 0.913452E-013
 0.913435E-013
 0.913416E-013
 0.913396E-013
 0.913374E-013
 0.913351E-013
 0.913325E-013
 0.913299E-013
 0.913270E-013
 0.913241E-013
 0.913210E-013
 0.913177E-013
 0.913143E-013
 0.913108E-013
 0.913072E-013
 0.913034E-013
 0.912996E-013
 0.912956E-013
 0.912915E-013
 0.912874E-013
 0.912831E-013
 0.912788E-013
 0.912744E-013
 0.912699E-013
 0.912653E-013
 0.912606E-013
 0.912559E-013
 0.912512E-013
 0.912463E-013
 0.912415E-013
 0.912365E-013
 0.912316E-013
 0.912265E-013
 0.912215E-013
 0.912164E-013
 0.912112E-013
 0.912061E-013
 0.912009E-013
 0.911957E-013
 0.911904E-013
 0.911851E-013
 0.911798E-013
 0.911745E-013
 0.911691E-013
 0.911637E-013
 0.911583E-013
 0.911529E-013
 0.911477E-013
 0.911412E-013
 0.911396E-013
 0.911206E-013
 0.911574E-013
 0.910369E-013
 0.913002E-013
 0.907623E-013
 0.916355E-013
 0.916968E-013
 0.906889E-013
 0.913029E-013
 0.909880E-013
 0.911206E-013
 0.910691E-013
 0.910832E-013
 0.910768E-013
 0.910761E-013
 0.910740E-013
 0.910723E-013
 0.910704E-013
 0.910686E-013
 0.910668E-013
 0.910650E-013
 0.910632E-013
 0.910615E-013
 0.910597E-013
 0.910579E-013
 0.910562E-013
 0.910544E-013
 0.910527E-013
 0.910510E-013
 0.910493E-013
 0.910476E-013
 0.910459E-013
 0.910442E-013
 0.910426E-013
 0.910410E-013
 0.910393E-013
 0.910378E-013
 0.910362E-013
 0.910347E-013
 0.910331E-013
 0.910316E-013
 0.910302E-013
 0.910288E-013
 0.910273E-013
 0.910260E-013
 0.910246E-013
 0.910233E-013
 0.910221E-013
 0.910209E-013
 0.910197E-013
 0.910185E-013
 0.910174E-013
 0.910164E-013
 0.910154E-013
 0.910144E-013
 0.910135E-013
 0.910127E-013
 0.910119E-013
 0.910112E-013
 0.910105E-013
 0.910099E-013
 0.910093E-013
 0.910088E-013
 0.910083E-013
 0.910080E-013
 0.910076E-013
 0.910074E-013
 0.910072E-013
 0.910071E-013
 0.910070E-013
 0.910070E-013
 0.910071E-013
 0.910072E-013
 0.910074E-013
 0.910076E-013
 0.910080E-013
 0.910083E-013
 0.910088E-013
 0.910093E-013
 0.910099E-013
 0.910105E-013
 0.910112E-013
 0.910119E-013
 0.910127E-013
 0.910135E-013
 0.910144E-013
 0.910154E-013
 0.910164E-013
 0.910174E-013
 0.910185E-013
 0.910197E-013
 0.910209E-013
 0.910221E-013
 0.910233E-013
 0.910246E-013
 0.910260E-013
 0.910274E-013
 0.910288E-013
 0.910302E-013
 0.910317E-013
 0.910331E-013
 0.910347E-013
 0.910362E-013
 0.910378E-013
 0.910394E-013
 0.910410E-013
 0.910426E-013
 0.910442E-013
 0.910459E-013
 0.910476E-013
 0.910493E-013
 0.910510E-013
 0.910527E-013
 0.910544E-013
 0.910562E-013
 0.910579E-013
 0.910597E-013
 0.910615E-013
 0.910632E-013
 0.910650E-013
 0.910668E-013
 0.910686E-013
 0.910704E-013
 0.910723E-013
 0.910740E-013
 0.910761E-013
 0.910768E-013
 0.910832E-013
 0.910691E-013
 0.911206E-013
 0.909880E-013
 0.913029E-013
 0.906889E-013
 0.916968E-013
 0.917783E-013
 0.906411E-013
 0.913420E-013
 0.909852E-013
 0.911396E-013
 0.910832E-013
 0.911022E-013
 0.910975E-013
 0.910993E-013
 0.910996E-013
 0.911002E-013
 0.911007E-013
 0.911012E-013
 0.911018E-013
 0.911023E-013
 0.911028E-013
 0.911034E-013
 0.911039E-013
 0.911044E-013
 0.911049E-013
 0.911055E-013
 0.911060E-013
 0.911065E-013
 0.911070E-013
 0.911075E-013
 0.911080E-013
 0.911085E-013
 0.911090E-013
 0.911095E-013
 0.911099E-013
 0.911104E-013
 0.911109E-013
 0.911113E-013
 0.911118E-013
 0.911122E-013
 0.911127E-013
 0.911131E-013
 0.911135E-013
 0.911139E-013
 0.911143E-013
 0.911147E-013
 0.911151E-013
 0.911155E-013
 0.911158E-013
 0.911161E-013
 0.911165E-013
 0.911168E-013
 0.911171E-013
 0.911174E-013
 0.911177E-013
 0.911179E-013
 0.911181E-013
 0.911184E-013
 0.911186E-013
 0.911188E-013
 0.911189E-013
 0.911191E-013
 0.911192E-013
 0.911193E-013
 0.911194E-013
 0.911195E-013
 0.911196E-013
 0.911196E-013
 0.911196E-013
 0.911196E-013
 0.911196E-013
 0.911196E-013
 0.911195E-013
 0.911194E-013
 0.911193E-013
 0.911192E-013
 0.911191E-013
 0.911189E-013
 0.911188E-013
 0.911186E-013
 0.911184E-013
 0.911181E-013
 0.911179E-013
 0.911176E-013
 0.911174E-013
 0.911171E-013
 0.911168E-013
 0.911165E-013
 0.911161E-013
 0.911158E-013
 0.911155E-013
 0.911151E-013
 0.911147E-013
 0.911143E-013
 0.911139E-013
 0.911135E-013
 0.911131E-013
 0.911127E-013
 0.911122E-013
 0.911118E-013
 0.911113E-013
 0.911109E-013
 0.911104E-013
 0.911099E-013
 0.911095E-013
 0.911090E-013
 0.911085E-013
 0.911080E-013
 0.911075E-013
 0.911070E-013
 0.911065E-013
 0.911060E-013
 0.911055E-013
 0.911049E-013
 0.911044E-013
 0.911039E-013
 0.911034E-013
 0.911028E-013
 0.911023E-013
 0.911018E-013
 0.911012E-013
 0.911007E-013
 0.911002E-013
 0.910996E-013
 0.910993E-013
 0.910975E-013
 0.911022E-013
 0.910832E-013
 0.911396E-013
 0.909852E-013
 0.913420E-013
 0.906411E-013
 0.917784E-013
 0.918537E-013
 0.905855E-013
 0.913697E-013
 0.909680E-013
 0.911412E-013
 0.910768E-013
 0.910975E-013
 0.910914E-013
 0.910928E-013
 0.910923E-013
 0.910922E-013
 0.910920E-013
 0.910919E-013
 0.910918E-013
 0.910916E-013
 0.910915E-013
 0.910913E-013
 0.910912E-013
 0.910911E-013
 0.910909E-013
 0.910908E-013
 0.910907E-013
 0.910905E-013
 0.910904E-013
 0.910903E-013
 0.910901E-013
 0.910900E-013
 0.910899E-013
 0.910898E-013
 0.910896E-013
 0.910895E-013
 0.910894E-013
 0.910893E-013
 0.910892E-013
 0.910891E-013
 0.910889E-013
 0.910888E-013
 0.910887E-013
 0.910886E-013
 0.910885E-013
 0.910884E-013
 0.910883E-013
 0.910882E-013
 0.910882E-013
 0.910881E-013
 0.910880E-013
 0.910879E-013
 0.910878E-013
 0.910878E-013
 0.910877E-013
 0.910876E-013
 0.910876E-013
 0.910875E-013
 0.910875E-013
 0.910874E-013
 0.910874E-013
 0.910874E-013
 0.910873E-013
 0.910873E-013
 0.910873E-013
 0.910873E-013
 0.910872E-013
 0.910872E-013
 0.910872E-013
 0.910872E-013
 0.910872E-013
 0.910872E-013
 0.910873E-013
 0.910873E-013
 0.910873E-013
 0.910873E-013
 0.910874E-013
 0.910874E-013
 0.910874E-013
 0.910875E-013
 0.910875E-013
 0.910876E-013
 0.910876E-013
 0.910877E-013
 0.910878E-013
 0.910878E-013
 0.910879E-013
 0.910880E-013
 0.910881E-013
 0.910882E-013
 0.910882E-013
 0.910883E-013
 0.910884E-013
 0.910885E-013
 0.910886E-013
 0.910887E-013
 0.910888E-013
 0.910889E-013
 0.910891E-013
 0.910892E-013
 0.910893E-013
 0.910894E-013
 0.910895E-013
 0.910896E-013
 0.910898E-013
 0.910899E-013
 0.910900E-013
 0.910901E-013
 0.910903E-013
 0.910904E-013
 0.910905E-013
 0.910907E-013
 0.910908E-013
 0.910909E-013
 0.910911E-013
 0.910912E-013
 0.910913E-013
 0.910915E-013
 0.910916E-013
 0.910918E-013
 0.910919E-013
 0.910920E-013
 0.910922E-013
 0.910923E-013
 0.910928E-013
 0.910914E-013
 0.910975E-013
 0.910768E-013
 0.911412E-013
 0.909680E-013
 0.913697E-013
 0.905855E-013
 0.918537E-013
 0.919304E-013
 0.905322E-013
 0.914005E-013
 0.909549E-013
 0.911477E-013
 0.910761E-013
 0.910993E-013
 0.910928E-013
 0.910945E-013
 0.910941E-013
 0.910942E-013
 0.910943E-013
 0.910943E-013
 0.910943E-013
 0.910944E-013
 0.910944E-013
 0.910944E-013
 0.910945E-013
 0.910945E-013
 0.910945E-013
 0.910946E-013
 0.910946E-013
 0.910946E-013
 0.910947E-013
 0.910947E-013
 0.910947E-013
 0.910948E-013
 0.910948E-013
 0.910948E-013
 0.910949E-013
 0.910949E-013
 0.910949E-013
 0.910950E-013
 0.910950E-013
 0.910950E-013
 0.910950E-013
 0.910951E-013
 0.910951E-013
 0.910951E-013
 0.910952E-013
 0.910952E-013
 0.910952E-013
 0.910953E-013
 0.910953E-013
 0.910953E-013
 0.910953E-013
 0.910954E-013
 0.910954E-013
 0.910954E-013
 0.910954E-013
 0.910954E-013
 0.910955E-013
 0.910955E-013
 0.910955E-013
 0.910955E-013
 0.910955E-013
 0.910955E-013
 0.910956E-013
 0.910956E-013
 0.910956E-013
 0.910956E-013
 0.910956E-013
 0.910956E-013
 0.910956E-013
 0.910956E-013
 0.910956E-013
 0.910956E-013
 0.910956E-013
 0.910956E-013
 0.910956E-013
 0.910956E-013
 0.910955E-013
 0.910955E-013
 0.910955E-013
 0.910955E-013
 0.910955E-013
 0.910955E-013
 0.910954E-013
 0.910954E-013
 0.910954E-013
 0.910954E-013
 0.910954E-013
 0.910953E-013
 0.910953E-013
 0.910953E-013
 0.910953E-013
 0.910952E-013
 0.910952E-013
 0.910952E-013
 0.910951E-013
 0.910951E-013
 0.910951E-013
 0.910950E-013
 0.910950E-013
 0.910950E-013
 0.910950E-013
 0.910949E-013
 0.910949E-013
 0.910949E-013
 0.910948E-013
 0.910948E-013
 0.910948E-013
 0.910947E-013
 0.910947E-013
 0.910947E-013
 0.910946E-013
 0.910946E-013
 0.910946E-013
 0.910945E-013
 0.910945E-013
 0.910945E-013
 0.910944E-013
 0.910944E-013
 0.910944E-013
 0.910943E-013
 0.910943E-013
 0.910943E-013
 0.910942E-013
 0.910941E-013
 0.910945E-013
 0.910928E-013
 0.910993E-013
 0.910761E-013
 0.911477E-013
 0.909549E-013
 0.914005E-013
 0.905323E-013
 0.919304E-013
 0.920065E-013
 0.904786E-013
 0.914304E-013
 0.909408E-013
 0.911529E-013
 0.910740E-013
 0.910996E-013
 0.910923E-013
 0.910941E-013
 0.910937E-013
 0.910938E-013
 0.910937E-013
 0.910937E-013
 0.910937E-013
 0.910937E-013
 0.910937E-013
 0.910937E-013
 0.910937E-013
 0.910937E-013
 0.910937E-013
 0.910937E-013
 0.910937E-013
 0.910937E-013
 0.910937E-013
 0.910937E-013
 0.910937E-013
 0.910937E-013
 0.910937E-013
 0.910937E-013
 0.910937E-013
 0.910936E-013
 0.910936E-013
 0.910936E-013
 0.910936E-013
 0.910936E-013
 0.910936E-013
 0.910936E-013
 0.910936E-013
 0.910936E-013
 0.910936E-013
 0.910936E-013
 0.910936E-013
 0.910936E-013
 0.910936E-013
 0.910936E-013
 0.910937E-013
 0.910937E-013
 0.910937E-013
 0.910937E-013
 0.910937E-013
 0.910937E-013
 0.910937E-013
 0.910937E-013
 0.910937E-013
 0.910937E-013
 0.910937E-013
 0.910937E-013
 0.910937E-013
 0.910937E-013
 0.910937E-013
 0.910937E-013
 0.910937E-013
 0.910937E-013
 0.910937E-013
 0.910937E-013
 0.910937E-013
 0.910937E-013
 0.910937E-013
 0.910937E-013
 0.910937E-013
 0.910937E-013
 0.910937E-013
 0.910937E-013
 0.910937E-013
 0.910937E-013
 0.910937E-013
 0.910937E-013
 0.910937E-013
 0.910937E-013
 0.910937E-013
 0.910937E-013
 0.910937E-013
 0.910937E-013
 0.910936E-013
 0.910936E-013
 0.910936E-013
 0.910936E-013
 0.910936E-013
 0.910936E-013
 0.910936E-013
 0.910936E-013
 0.910936E-013
 0.910936E-013
 0.910936E-013
 0.910936E-013
 0.910936E-013
 0.910936E-013
 0.910936E-013
 0.910937E-013
 0.910937E-013
 0.910937E-013
 0.910937E-013
 0.910937E-013
 0.910937E-013
 0.910937E-013
 0.910937E-013
 0.910937E-013
 0.910937E-013
 0.910937E-013
 0.910937E-013
 0.910937E-013
 0.910937E-013
 0.910937E-013
 0.910937E-013
 0.910937E-013
 0.910937E-013
 0.910937E-013
 0.910938E-013
 0.910937E-013
 0.910941E-013
 0.910923E-013
 0.910996E-013
 0.910740E-013
 0.911529E-013
 0.909408E-013
 0.914304E-013
 0.904786E-013
 0.920066E-013
 0.920825E-013
 0.904253E-013
 0.914604E-013
 0.909270E-013
 0.911584E-013
 0.910723E-013
 0.911002E-013
 0.910922E-013
 0.910942E-013
 0.910938E-013
 0.910939E-013
 0.910939E-013
 0.910939E-013
 0.910939E-013
 0.910939E-013
 0.910939E-013
 0.910939E-013
 0.910939E-013
 0.910939E-013
 0.910939E-013
 0.910939E-013
 0.910939E-013
 0.910939E-013
 0.910939E-013
 0.910939E-013
 0.910939E-013
 0.910939E-013
 0.910939E-013
 0.910939E-013
 0.910939E-013
 0.910939E-013
 0.910939E-013
 0.910939E-013
 0.910939E-013
 0.910939E-013
 0.910940E-013
 0.910940E-013
 0.910940E-013
 0.910940E-013
 0.910940E-013
 0.910940E-013
 0.910940E-013
 0.910940E-013
 0.910940E-013
 0.910940E-013
 0.910940E-013
 0.910940E-013
 0.910940E-013
 0.910941E-013