# vtk DataFile Version 3.0
Solution data
ASCII
DATASET STRUCTURED_GRID
DIMENSIONS 128 128 1
POINTS 16384  double
      0.000004      0.000004      0.000000
      0.000012      0.000004      0.000000
      0.000020      0.000004      0.000000
      0.000027      0.000004      0.000000
      0.000035      0.000004      0.000000
      0.000043      0.000004      0.000000
      0.000051      0.000004      0.000000
      0.000059      0.000004      0.000000
      0.000066      0.000004      0.000000
      0.000074      0.000004      0.000000
      0.000082      0.000004      0.000000
      0.000090      0.000004      0.000000
      0.000098      0.000004      0.000000
      0.000105      0.000004      0.000000
      0.000113      0.000004      0.000000
      0.000121      0.000004      0.000000
      0.000129      0.000004      0.000000
      0.000137      0.000004      0.000000
      0.000145      0.000004      0.000000
      0.000152      0.000004      0.000000
      0.000160      0.000004      0.000000
      0.000168      0.000004      0.000000
      0.000176      0.000004      0.000000
      0.000184      0.000004      0.000000
      0.000191      0.000004      0.000000
      0.000199      0.000004      0.000000
      0.000207      0.000004      0.000000
      0.000215      0.000004      0.000000
      0.000223      0.000004      0.000000
      0.000230      0.000004      0.000000
      0.000238      0.000004      0.000000
      0.000246      0.000004      0.000000
      0.000254      0.000004      0.000000
      0.000262      0.000004      0.000000
      0.000270      0.000004      0.000000
      0.000277      0.000004      0.000000
      0.000285      0.000004      0.000000
      0.000293      0.000004      0.000000
      0.000301      0.000004      0.000000
      0.000309      0.000004      0.000000
      0.000316      0.000004      0.000000
      0.000324      0.000004      0.000000
      0.000332      0.000004      0.000000
      0.000340      0.000004      0.000000
      0.000348      0.000004      0.000000
      0.000355      0.000004      0.000000
      0.000363      0.000004      0.000000
      0.000371      0.000004      0.000000
      0.000379      0.000004      0.000000
      0.000387      0.000004      0.000000
      0.000395      0.000004      0.000000
      0.000402      0.000004      0.000000
      0.000410      0.000004      0.000000
      0.000418      0.000004      0.000000
      0.000426      0.000004      0.000000
      0.000434      0.000004      0.000000
      0.000441      0.000004      0.000000
      0.000449      0.000004      0.000000
      0.000457      0.000004      0.000000
      0.000465      0.000004      0.000000
      0.000473      0.000004      0.000000
      0.000480      0.000004      0.000000
      0.000488      0.000004      0.000000
      0.000496      0.000004      0.000000
      0.000504      0.000004      0.000000
      0.000512      0.000004      0.000000
      0.000520      0.000004      0.000000
      0.000527      0.000004      0.000000
      0.000535      0.000004      0.000000
      0.000543      0.000004      0.000000
      0.000551      0.000004      0.000000
      0.000559      0.000004      0.000000
      0.000566      0.000004      0.000000
      0.000574      0.000004      0.000000
      0.000582      0.000004      0.000000
      0.000590      0.000004      0.000000
      0.000598      0.000004      0.000000
      0.000605      0.000004      0.000000
      0.000613      0.000004      0.000000
      0.000621      0.000004      0.000000
      0.000629      0.000004      0.000000
      0.000637      0.000004      0.000000
      0.000645      0.000004      0.000000
      0.000652      0.000004      0.000000
      0.000660      0.000004      0.000000
      0.000668      0.000004      0.000000
      0.000676      0.000004      0.000000
      0.000684      0.000004      0.000000
      0.000691      0.000004      0.000000
      0.000699      0.000004      0.000000
      0.000707      0.000004      0.000000
      0.000715      0.000004      0.000000
      0.000723      0.000004      0.000000
      0.000730      0.000004      0.000000
      0.000738      0.000004      0.000000
      0.000746      0.000004      0.000000
      0.000754      0.000004      0.000000
      0.000762      0.000004      0.000000
      0.000770      0.000004      0.000000
      0.000777      0.000004      0.000000
      0.000785      0.000004      0.000000
      0.000793      0.000004      0.000000
      0.000801      0.000004      0.000000
      0.000809      0.000004      0.000000
      0.000816      0.000004      0.000000
      0.000824      0.000004      0.000000
      0.000832      0.000004      0.000000
      0.000840      0.000004      0.000000
      0.000848      0.000004      0.000000
      0.000855      0.000004      0.000000
      0.000863      0.000004      0.000000
      0.000871      0.000004      0.000000
      0.000879      0.000004      0.000000
      0.000887      0.000004      0.000000
      0.000895      0.000004      0.000000
      0.000902      0.000004      0.000000
      0.000910      0.000004      0.000000
      0.000918      0.000004      0.000000
      0.000926      0.000004      0.000000
      0.000934      0.000004      0.000000
      0.000941      0.000004      0.000000
      0.000949      0.000004      0.000000
      0.000957      0.000004      0.000000
      0.000965      0.000004      0.000000
      0.000973      0.000004      0.000000
      0.000980      0.000004      0.000000
      0.000988      0.000004      0.000000
      0.000996      0.000004      0.000000
      0.000004      0.000012      0.000000
      0.000012      0.000012      0.000000
      0.000020      0.000012      0.000000
      0.000027      0.000012      0.000000
      0.000035      0.000012      0.000000
      0.000043      0.000012      0.000000
      0.000051      0.000012      0.000000
      0.000059      0.000012      0.000000
      0.000066      0.000012      0.000000
      0.000074      0.000012      0.000000
      0.000082      0.000012      0.000000
      0.000090      0.000012      0.000000
      0.000098      0.000012      0.000000
      0.000105      0.000012      0.000000
      0.000113      0.000012      0.000000
      0.000121      0.000012      0.000000
      0.000129      0.000012      0.000000
      0.000137      0.000012      0.000000
      0.000145      0.000012      0.000000
      0.000152      0.000012      0.000000
      0.000160      0.000012      0.000000
      0.000168      0.000012      0.000000
      0.000176      0.000012      0.000000
      0.000184      0.000012      0.000000
      0.000191      0.000012      0.000000
      0.000199      0.000012      0.000000
      0.000207      0.000012      0.000000
      0.000215      0.000012      0.000000
      0.000223      0.000012      0.000000
      0.000230      0.000012      0.000000
      0.000238      0.000012      0.000000
      0.000246      0.000012      0.000000
      0.000254      0.000012      0.000000
      0.000262      0.000012      0.000000
      0.000270      0.000012      0.000000
      0.000277      0.000012      0.000000
      0.000285      0.000012      0.000000
      0.000293      0.000012      0.000000
      0.000301      0.000012      0.000000
      0.000309      0.000012      0.000000
      0.000316      0.000012      0.000000
      0.000324      0.000012      0.000000
      0.000332      0.000012      0.000000
      0.000340      0.000012      0.000000
      0.000348      0.000012      0.000000
      0.000355      0.000012      0.000000
      0.000363      0.000012      0.000000
      0.000371      0.000012      0.000000
      0.000379      0.000012      0.000000
      0.000387      0.000012      0.000000
      0.000395      0.000012      0.000000
      0.000402      0.000012      0.000000
      0.000410      0.000012      0.000000
      0.000418      0.000012      0.000000
      0.000426      0.000012      0.000000
      0.000434      0.000012      0.000000
      0.000441      0.000012      0.000000
      0.000449      0.000012      0.000000
      0.000457      0.000012      0.000000
      0.000465      0.000012      0.000000
      0.000473      0.000012      0.000000
      0.000480      0.000012      0.000000
      0.000488      0.000012      0.000000
      0.000496      0.000012      0.000000
      0.000504      0.000012      0.000000
      0.000512      0.000012      0.000000
      0.000520      0.000012      0.000000
      0.000527      0.000012      0.000000
      0.000535      0.000012      0.000000
      0.000543      0.000012      0.000000
      0.000551      0.000012      0.000000
      0.000559      0.000012      0.000000
      0.000566      0.000012      0.000000
      0.000574      0.000012      0.000000
      0.000582      0.000012      0.000000
      0.000590      0.000012      0.000000
      0.000598      0.000012      0.000000
      0.000605      0.000012      0.000000
      0.000613      0.000012      0.000000
      0.000621      0.000012      0.000000
      0.000629      0.000012      0.000000
      0.000637      0.000012      0.000000
      0.000645      0.000012      0.000000
      0.000652      0.000012      0.000000
      0.000660      0.000012      0.000000
      0.000668      0.000012      0.000000
      0.000676      0.000012      0.000000
      0.000684      0.000012      0.000000
      0.000691      0.000012      0.000000
      0.000699      0.000012      0.000000
      0.000707      0.000012      0.000000
      0.000715      0.000012      0.000000
      0.000723      0.000012      0.000000
      0.000730      0.000012      0.000000
      0.000738      0.000012      0.000000
      0.000746      0.000012      0.000000
      0.000754      0.000012      0.000000
      0.000762      0.000012      0.000000
      0.000770      0.000012      0.000000
      0.000777      0.000012      0.000000
      0.000785      0.000012      0.000000
[...]
POINT_DATA 16384
SCALARS rhoe double
LOOKUP_TABLE default
 0.916641E-013
 0.912184E-013
 0.915505E-013
 0.915298E-013
 0.916471E-013
 0.917170E-013
 0.918009E-013
 0.918808E-013
 0.919613E-013
 0.920414E-013
 0.921213E-013
 0.922010E-013
 0.922803E-013
 0.923593E-013
 0.924381E-013
 0.925165E-013
 0.925945E-013
 0.926722E-013
 0.927495E-013
 0.928263E-013
 0.929027E-013
 0.929786E-013
 0.930539E-013
 0.931287E-013
 0.932029E-013
 0.932764E-013
 0.933492E-013
 0.934213E-013
 0.934926E-013
 0.935630E-013
 0.936326E-013
 0.937011E-013
 0.937687E-013
 0.938351E-013
 0.939004E-013
 0.939645E-013
 0.940273E-013
 0.940888E-013
 0.941488E-013
 0.942073E-013
 0.942642E-013
 0.943195E-013
 0.943731E-013
 0.944248E-013
 0.944747E-013
 0.945227E-013
 0.945686E-013
 0.946124E-013
 0.946541E-013
 0.946935E-013
 0.947306E-013
 0.947654E-013
 0.947977E-013
 0.948276E-013
 0.948549E-013
 0.948797E-013
 0.949018E-013
 0.949212E-013
 0.949380E-013
 0.949520E-013
 0.949632E-013
 0.949716E-013
 0.949773E-013
 0.949801E-013
 0.949801E-013
 0.949773E-013
 0.949716E-013
 0.949632E-013
 0.949520E-013
 0.949380E-013
 0.949212E-013
 0.949018E-013
 0.948797E-013
 0.948549E-013
 0.948276E-013
 0.947977E-013
 0.947654E-013
 0.947306E-013
 0.946935E-013
 0.946541E-013
 0.946124E-013
 0.945686E-013
 0.945227E-013
 0.944748E-013
 0.944249E-013
 0.943731E-013
 0.943195E-013
 0.942643E-013
 0.942073E-013
 0.941488E-013
 0.940888E-013
 0.940274E-013
 0.939646E-013
 0.939005E-013
 0.938352E-013
 0.937687E-013
 0.937012E-013
 0.936326E-013
 0.935631E-013
 0.934926E-013
 0.934213E-013
 0.933493E-013
 0.932764E-013
 0.932029E-013
 0.931288E-013
 0.930540E-013
 0.929786E-013
 0.929027E-013
 0.928264E-013
 0.927495E-013
 0.926722E-013
 0.925946E-013
 0.925165E-013
 0.924381E-013
 0.923594E-013
 0.922803E-013
 0.922010E-013
 0.921214E-013
 0.920414E-013
 0.919613E-013
 0.918808E-013
 0.918009E-013
 0.917170E-013
 0.916471E-013
 0.915298E-013
 0.915505E-013
 0.912184E-013
 0.916641E-013
 0.912184E-013
 0.907610E-013
 0.909421E-013
 0.907770E-013
 0.907661E-013
 0.906976E-013
 0.906478E-013
 0.905930E-013
 0.905396E-013
 0.904860E-013
 0.904327E-013
 0.903796E-013
 0.903267E-013
 0.902739E-013
 0.902214E-013
 0.901691E-013
 0.901170E-013
 0.900652E-013
 0.900136E-013
 0.899623E-013
 0.899114E-013
 0.898607E-013
 0.898105E-013
 0.897605E-013
 0.897110E-013
 0.896620E-013
 0.896133E-013
 0.895652E-013
 0.895176E-013
 0.894706E-013
 0.894241E-013
 0.893783E-013
 0.893332E-013
 0.892888E-013
 0.892452E-013
 0.892023E-013
 0.891604E-013
 0.891193E-013
 0.890792E-013
 0.890400E-013
 0.890020E-013
 0.889650E-013
 0.889292E-013
 0.888945E-013
 0.888612E-013
 0.888291E-013
 0.887984E-013
 0.887690E-013
 0.887412E-013
 0.887148E-013
 0.886899E-013
 0.886667E-013
 0.886450E-013
 0.886250E-013
 0.886067E-013
 0.885901E-013
 0.885753E-013
 0.885623E-013
 0.885511E-013
 0.885417E-013
 0.885342E-013
 0.885286E-013
 0.885248E-013
 0.885229E-013
 0.885229E-013
 0.885248E-013
 0.885286E-013
 0.885342E-013
 0.885417E-013
 0.885511E-013
 0.885623E-013
 0.885753E-013
 0.885901E-013
 0.886067E-013
 0.886250E-013
 0.886450E-013
 0.886667E-013
 0.886899E-013
 0.887148E-013
 0.887412E-013
 0.887691E-013
 0.887984E-013
 0.888291E-013
 0.888612E-013
 0.888946E-013
 0.889292E-013
 0.889650E-013
 0.890020E-013
 0.890401E-013
 0.890792E-013
 0.891193E-013
 0.891604E-013
 0.892024E-013
 0.892452E-013
 0.892888E-013
 0.893332E-013
 0.893784E-013
 0.894242E-013
 0.894706E-013
 0.895176E-013
 0.895652E-013
 0.896134E-013
 0.896620E-013
 0.897111E-013
 0.897606E-013
 0.898105E-013
 0.898608E-013
 0.899114E-013
 0.899624E-013
 0.900136E-013
 0.900652E-013
 0.901170E-013
 0.901691E-013
 0.902214E-013
 0.902739E-013
 0.903267E-013
 0.903796E-013
 0.904327E-013
 0.904860E-013
 0.905396E-013
 0.905930E-013
 0.906478E-013
 0.906976E-013
 0.907661E-013
 0.907770E-013
 0.909421E-013
 0.907610E-013
 0.912184E-013
 0.915505E-013
 0.909421E-013
 0.913210E-013
 0.911888E-013
 0.912793E-013
 0.912869E-013
 0.913211E-013
 0.913476E-013
 0.913760E-013
 0.914039E-013
 0.914318E-013
 0.914596E-013
 0.914872E-013
 0.915147E-013
 0.915422E-013
 0.915695E-013
 0.915966E-013
 0.916237E-013
 0.916506E-013
 0.916774E-013
 0.917040E-013
 0.917304E-013
 0.917566E-013
 0.917827E-013
 0.918085E-013
 0.918341E-013
 0.918595E-013
 0.918846E-013
 0.919095E-013
 0.919340E-013
 0.919583E-013
 0.919822E-013
 0.920058E-013
 0.920289E-013
 0.920517E-013
 0.920741E-013
 0.920960E-013
 0.921175E-013
 0.921384E-013
 0.921588E-013
 0.921787E-013
 0.921980E-013
 0.922167E-013
 0.922348E-013
 0.922523E-013
 0.922690E-013
 0.922851E-013
 0.923004E-013
 0.923149E-013
 0.923287E-013
 0.923417E-013
 0.923539E-013
 0.923652E-013
 0.923756E-013
 0.923852E-013
 0.923938E-013
 0.924016E-013
 0.924084E-013
 0.924142E-013
 0.924191E-013
 0.924231E-013
 0.924260E-013
 0.924280E-013
 0.924290E-013
 0.924290E-013
 0.924280E-013
 0.924260E-013
 0.924231E-013
 0.924191E-013
 0.924142E-013
 0.924084E-013
 0.924016E-013
 0.923938E-013
 0.923852E-013
 0.923756E-013
 0.923652E-013
 0.923539E-013
 0.923417E-013
 0.923287E-013
 0.923149E-013
 0.923004E-013
 0.922850E-013
 0.922690E-013
 0.922522E-013
 0.922348E-013
 0.922167E-013
 0.921980E-013
 0.921787E-013
 0.921588E-013
 0.921384E-013
 0.921174E-013
 0.920960E-013
 0.920741E-013
 0.920517E-013
 0.920289E-013
 0.920057E-013
 0.919822E-013
 0.919583E-013
 0.919340E-013
 0.919095E-013
 0.918846E-013
 0.918595E-013
 0.918341E-013
 0.918085E-013
 0.917827E-013
 0.917566E-013
 0.917304E-013
 0.917039E-013
 0.916773E-013
 0.916506E-013
 0.916237E-013
 0.915966E-013
 0.915694E-013
 0.915421E-013
 0.915147E-013
 0.914872E-013
 0.914595E-013
 0.914318E-013
 0.914039E-013
 0.913760E-013
 0.913476E-013
 0.913210E-013
 0.912869E-013
 0.912792E-013
 0.911888E-013
 0.913210E-013
 0.909421E-013
 0.915505E-013
 0.915298E-013
 0.907770E-013
 0.911888E-013
 0.909782E-013
 0.910440E-013
 0.910059E-013
 0.910015E-013
 0.909876E-013
 0.909761E-013
 0.909642E-013
 0.909523E-013
 0.909405E-013
 0.909288E-013
 0.909171E-013
 0.909054E-013
 0.908938E-013
 0.908823E-013
 0.908708E-013
 0.908593E-013
 0.908480E-013
 0.908367E-013
 0.908254E-013
 0.908143E-013
 0.908032E-013
 0.907922E-013
 0.907813E-013
 0.907706E-013
 0.907599E-013
 0.907493E-013
 0.907389E-013
 0.907286E-013
 0.907184E-013
 0.907084E-013
 0.906986E-013
 0.906889E-013
 0.906794E-013
 0.906701E-013
 0.906609E-013
 0.906520E-013
 0.906433E-013
 0.906349E-013
 0.906267E-013
 0.906187E-013
 0.906110E-013
 0.906036E-013
 0.905965E-013
 0.905897E-013
 0.905832E-013
 0.905770E-013
 0.905711E-013
 0.905656E-013
 0.905604E-013
 0.905556E-013
 0.905512E-013
 0.905471E-013
 0.905434E-013
 0.905401E-013
 0.905372E-013
 0.905348E-013
 0.905327E-013
 0.905310E-013
 0.905297E-013
 0.905289E-013
 0.905285E-013
 0.905285E-013
 0.905289E-013
 0.905297E-013
 0.905310E-013
 0.905327E-013
 0.905348E-013
 0.905372E-013
 0.905401E-013
 0.905434E-013
 0.905471E-013
 0.905512E-013
 0.905556E-013
 0.905604E-013
 0.905656E-013
 0.905711E-013
 0.905770E-013
 0.905832E-013
 0.905897E-013
 0.905965E-013
 0.906036E-013
 0.906111E-013
 0.906187E-013
 0.906267E-013
 0.906349E-013
 0.906434E-013
 0.906520E-013
 0.906610E-013
 0.906701E-013
 0.906794E-013
 0.906889E-013
 0.906986E-013
 0.907084E-013
 0.907184E-013
 0.907286E-013
 0.907389E-013
 0.907493E-013
 0.907599E-013
 0.907706E-013
 0.907814E-013
 0.907923E-013
 0.908032E-013
 0.908143E-013
 0.908255E-013
 0.908367E-013
 0.908480E-013
 0.908594E-013
 0.908708E-013
 0.908823E-013
 0.908938E-013
 0.909054E-013
 0.909171E-013
 0.909288E-013
 0.909406E-013
 0.909523E-013
 0.909642E-013
 0.909761E-013
 0.909876E-013
 0.910015E-013
 0.910059E-013
 0.910440E-013
 0.909782E-013
 0.911888E-013
 0.907770E-013
 0.915298E-013
 0.916471E-013
 0.907661E-013
 0.912793E-013
 0.910440E-013
 0.911426E-013
 0.911152E-013
 0.911287E-013
 0.911306E-013
 0.911353E-013
 0.911395E-013
 0.911437E-013
 0.911479E-013
 0.911521E-013
 0.911563E-013
 0.911604E-013
 0.911645E-013
 0.911687E-013
 0.911727E-013
 0.911768E-013
 0.911809E-013
 0.911849E-013
 0.911889E-013
 0.911929E-013
 0.911968E-013
 0.912007E-013
 0.912046E-013
 0.912084E-013
 0.912122E-013
 0.912160E-013
 0.912197E-013
 0.912234E-013
 0.912270E-013
 0.912306E-013
 0.912341E-013
 0.912375E-013
 0.912409E-013
 0.912442E-013
 0.912475E-013
 0.912506E-013
 0.912537E-013
 0.912567E-013
 0.912597E-013
 0.912625E-013
 0.912652E-013
 0.912679E-013
 0.912704E-013
 0.912728E-013
 0.912752E-013
 0.912774E-013
 0.912795E-013
 0.912814E-013
 0.912833E-013
 0.912850E-013
 0.912866E-013
 0.912880E-013
 0.912893E-013
 0.912905E-013
 0.912915E-013
 0.912924E-013
 0.912932E-013
 0.912937E-013
 0.912942E-013
 0.912945E-013
 0.912946E-013
 0.912946E-013
 0.912945E-013
 0.912942E-013
 0.912937E-013
 0.912931E-013
 0.912924E-013
 0.912915E-013
 0.912905E-013
 0.912893E-013
 0.912880E-013
 0.912866E-013
 0.912850E-013
 0.912833E-013
 0.912814E-013
 0.912794E-013
 0.912774E-013
 0.912752E-013
 0.912728E-013
 0.912704E-013
 0.912679E-013
 0.912652E-013
 0.912625E-013
 0.912596E-013
 0.912567E-013
 0.912537E-013
 0.912506E-013
 0.912475E-013
 0.912442E-013
 0.912409E-013
 0.912375E-013
 0.912341E-013
 0.912305E-013
 0.912270E-013
 0.912234E-013
 0.912197E-013
 0.912160E-013
 0.912122E-013
 0.912084E-013
 0.912046E-013
 0.912007E-013
 0.911968E-013
 0.911929E-013
 0.911889E-013
 0.911849E-013
 0.911809E-013
 0.911768E-013
 0.911727E-013
 0.911686E-013
 0.911645E-013
 0.911604E-013
 0.911562E-013
 0.911521E-013
 0.911479E-013
 0.911437E-013
 0.911395E-013
 0.911353E-013
 0.911306E-013
 0.911287E-013
 0.911152E-013
 0.911426E-013
 0.910440E-013
 0.912792E-013
 0.907661E-013
 0.916471E-013
 0.917170E-013
 0.906976E-013
 0.912869E-013
 0.910059E-013
 0.911152E-013
 0.910766E-013
 0.910862E-013
 0.910821E-013
 0.910814E-013
 0.910800E-013
 0.910787E-013
 0.910774E-013
 0.910762E-013
 0.910749E-013
 0.910736E-013
 0.910724E-013
 0.910711E-013
 0.910699E-013
 0.910686E-013
 0.910674E-013
 0.910662E-013
 0.910649E-013
 0.910637E-013
 0.910625E-013
 0.910613E-013
 0.910601E-013
 0.910590E-013
 0.910578E-013
 0.910567E-013
 0.910555E-013
 0.910544E-013
 0.910533E-013
 0.910522E-013
 0.910512E-013
 0.910501E-013
 0.910491E-013
 0.910481E-013
 0.910471E-013
 0.910461E-013
 0.910452E-013
 0.910443E-013
 0.910434E-013
 0.910425E-013
 0.910417E-013
 0.910409E-013
 0.910401E-013
 0.910394E-013
 0.910386E-013
 0.910380E-013
 0.910373E-013
 0.910367E-013
 0.910362E-013
 0.910357E-013
 0.910352E-013
 0.910347E-013
 0.910343E-013
 0.910340E-013
 0.910337E-013
 0.910334E-013
 0.910332E-013
 0.910330E-013
 0.910329E-013
 0.910328E-013
 0.910327E-013
 0.910327E-013
 0.910328E-013
 0.910329E-013
 0.910330E-013
 0.910332E-013
 0.910334E-013
 0.910337E-013
 0.910340E-013
 0.910343E-013
 0.910347E-013
 0.910352E-013
 0.910357E-013
 0.910362E-013
 0.910367E-013
 0.910373E-013
 0.910380E-013
 0.910387E-013
 0.910394E-013
 0.910401E-013
 0.910409E-013
 0.910417E-013
 0.910425E-013
 0.910434E-013
 0.910443E-013
 0.910452E-013
 0.910461E-013
 0.910471E-013
 0.910481E-013
 0.910491E-013
 0.910501E-013
 0.910512E-013
 0.910522E-013
 0.910533E-013
 0.910544E-013
 0.910555E-013
 0.910567E-013
 0.910578E-013
 0.910590E-013
 0.910602E-013
 0.910613E-013
 0.910625E-013
 0.910637E-013
 0.910649E-013
 0.910662E-013
 0.910674E-013
 0.910686E-013
 0.910699E-013
 0.910711E-013
 0.910724E-013
 0.910736E-013
 0.910749E-013
 0.910762E-013
 0.910775E-013
 0.910787E-013
 0.910800E-013
 0.910814E-013
 0.910821E-013
 0.910862E-013
 0.910766E-013
 0.911152E-013
 0.910059E-013
 0.912869E-013
 0.906976E-013
 0.917170E-013
 0.918009E-013
 0.906478E-013
 0.913211E-013
 0.910015E-013
 0.911287E-013
 0.910862E-013
 0.910991E-013
 0.910962E-013
 0.910973E-013
 0.910975E-013
 0.910978E-013
 0.910982E-013
 0.910985E-013
 0.910989E-013
 0.910992E-013
 0.910995E-013
 0.910999E-013
 0.911002E-013
 0.911005E-013
 0.911009E-013
 0.911012E-013
 0.911015E-013
 0.911018E-013
 0.911022E-013
 0.911025E-013
 0.911028E-013
 0.911031E-013
 0.911034E-013
 0.911037E-013
 0.911040E-013
 0.911043E-013
 0.911046E-013
 0.911049E-013
 0.911052E-013
 0.911055E-013
 0.911058E-013
 0.911061E-013
 0.911063E-013
 0.911066E-013
 0.911068E-013
 0.911071E-013
 0.911073E-013
 0.911076E-013
 0.911078E-013
 0.911080E-013
 0.911082E-013
 0.911084E-013
 0.911086E-013
 0.911088E-013
 0.911090E-013
 0.911091E-013
 0.911093E-013
 0.911094E-013
 0.911096E-013
 0.911097E-013
 0.911098E-013
 0.911099E-013
 0.911100E-013
 0.911101E-013
 0.911101E-013
 0.911102E-013
 0.911102E-013
 0.911102E-013
 0.911102E-013
 0.911102E-013
 0.911102E-013
 0.911102E-013
 0.911102E-013
 0.911101E-013
 0.911101E-013
 0.911100E-013
 0.911099E-013
 0.911098E-013
 0.911097E-013
 0.911096E-013
 0.911094E-013
 0.911093E-013
 0.911091E-013
 0.911090E-013
 0.911088E-013
 0.911086E-013
 0.911084E-013
 0.911082E-013
 0.911080E-013
 0.911078E-013
 0.911076E-013
 0.911073E-013
 0.911071E-013
 0.911068E-013
 0.911066E-013
 0.911063E-013
 0.911061E-013
 0.911058E-013
 0.911055E-013
 0.911052E-013
 0.911049E-013
 0.911046E-013
 0.911043E-013
 0.911040E-013
 0.911037E-013
 0.911034E-013
 0.911031E-013
 0.911028E-013
 0.911025E-013
 0.911022E-013
 0.911018E-013
 0.911015E-013
 0.911012E-013
 0.911009E-013
 0.911005E-013
 0.911002E-013
 0.910999E-013
 0.910995E-013
 0.910992E-013
 0.910989E-013
 0.910985E-013
 0.910982E-013
 0.910978E-013
 0.910975E-013
 0.910973E-013
 0.910962E-013
 0.910991E-013
 0.910862E-013
 0.911287E-013
 0.910015E-013
 0.913210E-013
 0.906478E-013
 0.918009E-013
 0.918808E-013
 0.905930E-013
 0.913476E-013
 0.909876E-013
 0.911306E-013
 0.910821E-013
 0.910962E-013
 0.910924E-013
 0.910932E-013
 0.910929E-013
 0.910929E-013
 0.910928E-013
 0.910927E-013
 0.910927E-013
 0.910926E-013
 0.910925E-013
 0.910924E-013
 0.910923E-013
 0.910923E-013
 0.910922E-013
 0.910921E-013
 0.910920E-013
 0.910920E-013
 0.910919E-013
 0.910918E-013
 0.910917E-013
 0.910917E-013
 0.910916E-013
 0.910915E-013
 0.910915E-013
 0.910914E-013
 0.910913E-013
 0.910913E-013
 0.910912E-013
 0.910911E-013
 0.910911E-013
 0.910910E-013
 0.910909E-013
 0.910909E-013
 0.910908E-013
 0.910908E-013
 0.910907E-013
 0.910907E-013
 0.910906E-013
 0.910906E-013
 0.910905E-013
 0.910905E-013
 0.910905E-013
 0.910904E-013
 0.910904E-013
 0.910904E-013
 0.910903E-013
 0.910903E-013
 0.910903E-013
 0.910902E-013
 0.910902E-013
 0.910902E-013
 0.910902E-013
 0.910902E-013
 0.910902E-013
 0.910901E-013
 0.910901E-013
 0.910901E-013
 0.910901E-013
 0.910901E-013
 0.910901E-013
 0.910901E-013
 0.910901E-013
 0.910902E-013
 0.910902E-013
 0.910902E-013
 0.910902E-013
 0.910902E-013
 0.910902E-013
 0.910903E-013
 0.910903E-013
 0.910903E-013
 0.910904E-013
 0.910904E-013
 0.910904E-013
 0.910905E-013
 0.910905E-013
 0.910905E-013
 0.910906E-013
 0.910906E-013
 0.910907E-013
 0.910907E-013
 0.910908E-013
 0.910908E-013
 0.910909E-013
 0.910909E-013
 0.910910E-013
 0.910911E-013
 0.910911E-013
 0.910912E-013
 0.910913E-013
 0.910913E-013
 0.910914E-013
 0.910915E-013
 0.910915E-013
 0.910916E-013
 0.910917E-013
 0.910917E-013
 0.910918E-013
 0.910919E-013
 0.910920E-013
 0.910920E-013
 0.910921E-013
 0.910922E-013
 0.910923E-013
 0.910923E-013
 0.910924E-013
 0.910925E-013
 0.910926E-013
 0.910927E-013
 0.910927E-013
 0.910928E-013
 0.910929E-013
 0.910929E-013
 0.910932E-013
 0.910924E-013
 0.910962E-013
 0.910821E-013
 0.911306E-013
 0.909876E-013
 0.913476E-013
 0.905930E-013
 0.918808E-013
 0.919613E-013
 0.905396E-013
 0.913760E-013
 0.909761E-013
 0.911353E-013
 0.910814E-013
 0.910973E-013
 0.910932E-013
 0.910942E-013
 0.910940E-013
 0.910940E-013
 0.910941E-013
 0.910941E-013
 0.910941E-013
 0.910941E-013
 0.910941E-013
 0.910941E-013
 0.910942E-013
 0.910942E-013
 0.910942E-013
 0.910942E-013
 0.910942E-013
 0.910942E-013
 0.910943E-013
 0.910943E-013
 0.910943E-013
 0.910943E-013
 0.910943E-013
 0.910944E-013
 0.910944E-013
 0.910944E-013
 0.910944E-013
 0.910944E-013
 0.910944E-013
 0.910945E-013
 0.910945E-013
 0.910945E-013
 0.910945E-013
 0.910945E-013
 0.910945E-013
 0.910946E-013
 0.910946E-013
 0.910946E-013
 0.910946E-013
 0.910946E-013
 0.910946E-013
 0.910947E-013
 0.910947E-013
 0.910947E-013
 0.910947E-013
 0.910947E-013
 0.910947E-013
 0.910947E-013
 0.910948E-013
 0.910948E-013
 0.910948E-013
 0.910948E-013
 0.910948E-013
 0.910948E-013
 0.910948E-013
 0.910948E-013
 0.910948E-013
 0.910948E-013
 0.910948E-013
 0.910948E-013
 0.910948E-013
 0.910948E-013
 0.910948E-013
 0.910948E-013
 0.910948E-013
 0.910948E-013
 0.910948E-013
 0.910948E-013
 0.910948E-013
 0.910948E-013
 0.910947E-013
 0.910947E-013
 0.910947E-013
 0.910947E-013
 0.910947E-013
 0.910947E-013
 0.910947E-013
 0.910947E-013
 0.910946E-013
 0.910946E-013
 0.910946E-013
 0.910946E-013
 0.910946E-013
 0.910945E-013
 0.910945E-013
 0.910945E-013
 0.910945E-013
 0.910945E-013
 0.910945E-013
 0.910944E-013
 0.910944E-013
 0.910944E-013
 0.910944E-013
 0.910944E-013
 0.910944E-013
 0.910943E-013
 0.910943E-013
 0.910943E-013
 0.910943E-013
 0.910943E-013
 0.910942E-013
 0.910942E-013
 0.910942E-013
 0.910942E-013
 0.910942E-013
 0.910942E-013
 0.910941E-013
 0.910941E-013
 0.910941E-013
 0.910941E-013
 0.910941E-013
 0.910941E-013
 0.910940E-013
 0.910940E-013
 0.910942E-013
 0.910932E-013
 0.910973E-013
 0.910814E-013
 0.911353E-013
 0.909761E-013
 0.913760E-013
 0.905396E-013
 0.919613E-013
 0.920414E-013
 0.904860E-013
 0.914039E-013
 0.909642E-013
 0.911395E-013
 0.910800E-013
 0.910975E-013
 0.910929E-013
 0.910940E-013
 0.910938E-013
 0.910938E-013
 0.910938E-013
 0.910938E-013
 0.910938E-013
 0.910938E-013
 0.910938E-013
 0.910938E-013
 0.910938E-013
 0.910938E-013
 0.910938E-013
 0.910938E-013
 0.910938E-013
 0.910938E-013
 0.910938E-013
 0.910938E-013
 0.910938E-013
 0.910938E-013
 0.910938E-013
 0.910938E-013
 0.910938E-013
 0.910938E-013
 0.910938E-013
 0.910938E-013
 0.910938E-013
 0.910938E-013
 0.910938E-013
 0.910938E-013
 0.910938E-013
 0.910938E-013
 0.910938E-013
 0.910938E-013
 0.910938E-013
 0.910938E-013
 0.910938E-013
 0.910938E-013
 0.910938E-013
 0.910938E-013
 0.910938E-013
 0.910938E-013
 0.910938E-013
 0.910938E-013
 0.910938E-013
 0.910938E-013
 0.910939E-013
 0.910939E-013
 0.910939E-013
 0.910939E-013
 0.910939E-013
 0.910939E-013
 0.910939E-013
 0.910939E-013
 0.910939E-013
 0.910939E-013
 0.910939E-013
 0.910939E-013
 0.910939E-013
 0.910939E-013
 0.910939E-013
 0.910939E-013
 0.910939E-013
 0.910939E-013
 0.910939E-013
 0.910939E-013
 0.910939E-013
 0.910939E-013
 0.910938E-013
 0.910938E-013
 0.910938E-013
 0.910938E-013
 0.910938E-013
 0.910938E-013
 0.910938E-013
 0.910938E-013
 0.910938E-013
 0.910938E-013
 0.910938E-013
 0.910938E-013
 0.910938E-013
 0.910938E-013
 0.910938E-013
 0.910938E-013
 0.910938E-013
 0.910938E-013
 0.910938E-013
 0.910938E-013
 0.910938E-013
 0.910938E-013
 0.910938E-013
 0.910938E-013
 0.910938E-013
 0.910938E-013
 0.910938E-013
 0.910938E-013
 0.910938E-013
 0.910938E-013
 0.910938E-013
 0.910938E-013
 0.910938E-013
 0.910938E-013
 0.910938E-013
 0.910938E-013
 0.910938E-013
 0.910938E-013
 0.910938E-013
 0.910938E-013
 0.910938E-013
 0.910938E-013
 0.910938E-013
 0.910938E-013
 0.910940E-013
 0.910929E-013
 0.910975E-013
 0.910800E-013
 0.911395E-013
 0.909642E-013
 0.914039E-013
 0.904860E-013
 0.920415E-013
 0.921213E-013
 0.904327E-013
 0.914318E-013
 0.909523E-013
 0.911437E-013
 0.910787E-013
 0.910978E-013
 0.910929E-013
 0.910940E-013
 0.910938E-013
 0.910938E-013
 0.910938E-013
 0.910938E-013
 0.910938E-013
 0.910938E-013
 0.910938E-013
 0.910939E-013
 0.910939E-013
 0.910939E-013
 0.910939E-013
 0.910939E-013
 0.910939E-013
 0.910939E-013
 0.910939E-013
 0.910939E-013
 0.910939E-013
 0.910939E-013
 0.910939E-013
 0.910939E-013
 0.910939E-013
 0.910939E-013
 0.910939E-013
 0.910939E-013
 0.910939E-013
 0.910939E-013
 0.910939E-013
 0.910939E-013
 0.910939E-013
 0.910939E-013
 0.910939E-013
 0.910940E-013
 0.910940E-013
 0.910940E-013
 0.910940E-013
 0.910940E-013
 0.910940E-013
 0.910940E-013
 0.910940E-013
 0.910940E-013