# vtk DataFile Version 3.0
Solution data
ASCII
DATASET STRUCTURED_GRID
DIMENSIONS 128 128 1
POINTS 16384  double
      0.000004      0.000004      0.000000
      0.000012      0.000004      0.000000
      0.000020      0.000004      0.000000
      0.000027      0.000004      0.000000
      0.000035      0.000004      0.000000
      0.000043      0.000004      0.000000
      0.000051      0.000004      0.000000
      0.000059      0.000004      0.000000
      0.000066      0.000004      0.000000
      0.000074      0.000004      0.000000
      0.000082      0.000004      0.000000
      0.000090      0.000004      0.000000
      0.000098      0.000004      0.000000
      0.000105      0.000004      0.000000
      0.000113      0.000004      0.000000
      0.000121      0.000004      0.000000
      0.000129      0.000004      0.000000
      0.000137      0.000004      0.000000
      0.000145      0.000004      0.000000
      0.000152      0.000004      0.000000
      0.000160      0.000004      0.000000
      0.000168      0.000004      0.000000
      0.000176      0.000004      0.000000
      0.000184      0.000004      0.000000
      0.000191      0.000004      0.000000
      0.000199      0.000004      0.000000
      0.000207      0.000004      0.000000
      0.000215      0.000004      0.000000
      0.000223      0.000004      0.000000
      0.000230      0.000004      0.000000
      0.000238      0.000004      0.000000
      0.000246      0.000004      0.000000
      0.000254      0.000004      0.000000
      0.000262      0.000004      0.000000
      0.000270      0.000004      0.000000
      0.000277      0.000004      0.000000
      0.000285      0.000004      0.000000
      0.000293      0.000004      0.000000
      0.000301      0.000004      0.000000
      0.000309      0.000004      0.000000
      0.000316      0.000004      0.000000
      0.000324      0.000004      0.000000
      0.000332      0.000004      0.000000
      0.000340      0.000004      0.000000
      0.000348      0.000004      0.000000
      0.000355      0.000004      0.000000
      0.000363      0.000004      0.000000
      0.000371      0.000004      0.000000
      0.000379      0.000004      0.000000
      0.000387      0.000004      0.000000
      0.000395      0.000004      0.000000
      0.000402      0.000004      0.000000
      0.000410      0.000004      0.000000
      0.000418      0.000004      0.000000
      0.000426      0.000004      0.000000
      0.000434      0.000004      0.000000
      0.000441      0.000004      0.000000
      0.000449      0.000004      0.000000
      0.000457      0.000004      0.000000
      0.000465      0.000004      0.000000
      0.000473      0.000004      0.000000
      0.000480      0.000004      0.000000
      0.000488      0.000004      0.000000
      0.000496      0.000004      0.000000
      0.000504      0.000004      0.000000
      0.000512      0.000004      0.000000
      0.000520      0.000004      0.000000
      0.000527      0.000004      0.000000
      0.000535      0.000004      0.000000
      0.000543      0.000004      0.000000
      0.000551      0.000004      0.000000
      0.000559      0.000004      0.000000
      0.000566      0.000004      0.000000
      0.000574      0.000004      0.000000
      0.000582      0.000004      0.000000
      0.000590      0.000004      0.000000
      0.000598      0.000004      0.000000
      0.000605      0.000004      0.000000
      0.000613      0.000004      0.000000
      0.000621      0.000004      0.000000
      0.000629      0.000004      0.000000
      0.000637      0.000004      0.000000
      0.000645      0.000004      0.000000
      0.000652      0.000004      0.000000
      0.000660      0.000004      0.000000
      0.000668      0.000004      0.000000
      0.000676      0.000004      0.000000
      0.000684      0.000004      0.000000
      0.000691      0.000004      0.000000
      0.000699      0.000004      0.000000
      0.000707      0.000004      0.000000
      0.000715      0.000004      0.000000
      0.000723      0.000004      0.000000
      0.000730      0.000004      0.000000
      0.000738      0.000004      0.000000
      0.000746      0.000004      0.000000
      0.000754      0.000004      0.000000
      0.000762      0.000004      0.000000
      0.000770      0.000004      0.000000
      0.000777      0.000004      0.000000
      0.000785      0.000004      0.000000
      0.000793      0.000004      0.000000
      0.000801      0.000004      0.000000
      0.000809      0.000004      0.000000
      0.000816      0.000004      0.000000
      0.000824      0.000004      0.000000
      0.000832      0.000004      0.000000
      0.000840      0.000004      0.000000
      0.000848      0.000004      0.000000
      0.000855      0.000004      0.000000
      0.000863      0.000004      0.000000
      0.000871      0.000004      0.000000
      0.000879      0.000004      0.000000
      0.000887      0.000004      0.000000
      0.000895      0.000004      0.000000
      0.000902      0.000004      0.000000
      0.000910      0.000004      0.000000
      0.000918      0.000004      0.000000
      0.000926      0.000004      0.000000
      0.000934      0.000004      0.000000
      0.000941      0.000004      0.000000
      0.000949      0.000004      0.000000
      0.000957      0.000004      0.000000
      0.000965      0.000004      0.000000
      0.000973      0.000004      0.000000
      0.000980      0.000004      0.000000
      0.000988      0.000004      0.000000
      0.000996      0.000004      0.000000
      0.000004      0.000012      0.000000
      0.000012      0.000012      0.000000
      0.000020      0.000012      0.000000
      0.000027      0.000012      0.000000
      0.000035      0.000012      0.000000
      0.000043      0.000012      0.000000
      0.000051      0.000012      0.000000
      0.000059      0.000012      0.000000
      0.000066      0.000012      0.000000
      0.000074      0.000012      0.000000
      0.000082      0.000012      0.000000
      0.000090      0.000012      0.000000
      0.000098      0.000012      0.000000
      0.000105      0.000012      0.000000
      0.000113      0.000012      0.000000
      0.000121      0.000012      0.000000
      0.000129      0.000012      0.000000
      0.000137      0.000012      0.000000
      0.000145      0.000012      0.000000
      0.000152      0.000012      0.000000
      0.000160      0.000012      0.000000
      0.000168      0.000012      0.000000
      0.000176      0.000012      0.000000
      0.000184      0.000012      0.000000
      0.000191      0.000012      0.000000
      0.000199      0.000012      0.000000
      0.000207      0.000012      0.000000
      0.000215      0.000012      0.000000
      0.000223      0.000012      0.000000
      0.000230      0.000012      0.000000
      0.000238      0.000012      0.000000
      0.000246      0.000012      0.000000
      0.000254      0.000012      0.000000
      0.000262      0.000012      0.000000
      0.000270      0.000012      0.000000
      0.000277      0.000012      0.000000
      0.000285      0.000012      0.000000
      0.000293      0.000012      0.000000
      0.000301      0.000012      0.000000
      0.000309      0.000012      0.000000
      0.000316      0.000012      0.000000
      0.000324      0.000012      0.000000
      0.000332      0.000012      0.000000
      0.000340      0.000012      0.000000
      0.000348      0.000012      0.000000
      0.000355      0.000012      0.000000
      0.000363      0.000012      0.000000
      0.000371      0.000012      0.000000
      0.000379      0.000012      0.000000
      0.000387      0.000012      0.000000
      0.000395      0.000012      0.000000
      0.000402      0.000012      0.000000
      0.000410      0.000012      0.000000
      0.000418      0.000012      0.000000
      0.000426      0.000012      0.000000
      0.000434      0.000012      0.000000
      0.000441      0.000012      0.000000
      0.000449      0.000012      0.000000
      0.000457      0.000012      0.000000
      0.000465      0.000012      0.000000
      0.000473      0.000012      0.000000
      0.000480      0.000012      0.000000
      0.000488      0.000012      0.000000
      0.000496      0.000012      0.000000
      0.000504      0.000012      0.000000
      0.000512      0.000012      0.000000
      0.000520      0.000012      0.000000
      0.000527      0.000012      0.000000
      0.000535      0.000012      0.000000
      0.000543      0.000012      0.000000
      0.000551      0.000012      0.000000
      0.000559      0.000012      0.000000
      0.000566      0.000012      0.000000
      0.000574      0.000012      0.000000
      0.000582      0.000012      0.000000
      0.000590      0.000012      0.000000
      0.000598      0.000012      0.000000
      0.000605      0.000012      0.000000
      0.000613      0.000012      0.000000
      0.000621      0.000012      0.000000
      0.000629      0.000012      0.000000
      0.000637      0.000012      0.000000
      0.000645      0.000012      0.000000
      0.000652      0.000012      0.000000
      0.000660      0.000012      0.000000
      0.000668      0.000012      0.000000
      0.000676      0.000012      0.000000
      0.000684      0.000012      0.000000
      0.000691      0.000012      0.000000
      0.000699      0.000012      0.000000
      0.000707      0.000012      0.000000
      0.000715      0.000012      0.000000
      0.000723      0.000012      0.000000
      0.000730      0.000012      0.000000
      0.000738      0.000012      0.000000
      0.000746      0.000012      0.000000
      0.000754      0.000012      0.000000
      0.000762      0.000012      0.000000
      0.000770      0.000012      0.000000
      0.000777      0.000012      0.000000
      0.000785      0.000012      0.000000
[...]
POINT_DATA 16384
SCALARS rhoe double
LOOKUP_TABLE default
 0.916674E-013
 0.912146E-013
 0.915516E-013
 0.915264E-013
 0.916449E-013
 0.917132E-013
 0.917966E-013
 0.918757E-013
 0.919555E-013
 0.920348E-013
 0.921140E-013
 0.921928E-013
 0.922714E-013
 0.923497E-013
 0.924277E-013
 0.925054E-013
 0.925827E-013
 0.926596E-013
 0.927362E-013
 0.928123E-013
 0.928879E-013
 0.929631E-013
 0.930377E-013
 0.931117E-013
 0.931852E-013
 0.932580E-013
 0.933301E-013
 0.934015E-013
 0.934720E-013
 0.935418E-013
 0.936106E-013
 0.936785E-013
 0.937454E-013
 0.938112E-013
 0.938758E-013
 0.939393E-013
 0.940015E-013
 0.940623E-013
 0.941217E-013
 0.941796E-013
 0.942360E-013
 0.942907E-013
 0.943437E-013
 0.943950E-013
 0.944443E-013
 0.944918E-013
 0.945372E-013
 0.945806E-013
 0.946218E-013
 0.946609E-013
 0.946976E-013
 0.947320E-013
 0.947640E-013
 0.947936E-013
 0.948206E-013
 0.948451E-013
 0.948670E-013
 0.948862E-013
 0.949028E-013
 0.949166E-013
 0.949278E-013
 0.949361E-013
 0.949417E-013
 0.949445E-013
 0.949445E-013
 0.949417E-013
 0.949361E-013
 0.949278E-013
 0.949167E-013
 0.949028E-013
 0.948862E-013
 0.948670E-013
 0.948451E-013
 0.948206E-013
 0.947936E-013
 0.947640E-013
 0.947320E-013
 0.946976E-013
 0.946609E-013
 0.946219E-013
 0.945806E-013
 0.945373E-013
 0.944918E-013
 0.944444E-013
 0.943950E-013
 0.943438E-013
 0.942907E-013
 0.942360E-013
 0.941796E-013
 0.941217E-013
 0.940623E-013
 0.940015E-013
 0.939393E-013
 0.938759E-013
 0.938112E-013
 0.937454E-013
 0.936785E-013
 0.936107E-013
 0.935418E-013
 0.934721E-013
 0.934015E-013
 0.933301E-013
 0.932580E-013
 0.931852E-013
 0.931118E-013
 0.930377E-013
 0.929631E-013
 0.928879E-013
 0.928123E-013
 0.927362E-013
 0.926597E-013
 0.925827E-013
 0.925054E-013
 0.924277E-013
 0.923498E-013
 0.922715E-013
 0.921929E-013
 0.921140E-013
 0.920348E-013
 0.919555E-013
 0.918757E-013
 0.917966E-013
 0.917132E-013
 0.916449E-013
 0.915264E-013
 0.915516E-013
 0.912146E-013
 0.916673E-013
 0.912146E-013
 0.907591E-013
 0.909420E-013
 0.907743E-013
 0.907651E-013
 0.906957E-013
 0.906462E-013
 0.905912E-013
 0.905378E-013
 0.904842E-013
 0.904309E-013
 0.903777E-013
 0.903247E-013
 0.902720E-013
 0.902194E-013
 0.901670E-013
 0.901149E-013
 0.900631E-013
 0.900115E-013
 0.899602E-013
 0.899092E-013
 0.898585E-013
 0.898082E-013
 0.897583E-013
 0.897087E-013
 0.896596E-013
 0.896110E-013
 0.895628E-013
 0.895152E-013
 0.894682E-013
 0.894217E-013
 0.893759E-013
 0.893308E-013
 0.892863E-013
 0.892427E-013
 0.891999E-013
 0.891579E-013
 0.891168E-013
 0.890767E-013
 0.890375E-013
 0.889995E-013
 0.889625E-013
 0.889267E-013
 0.888920E-013
 0.888586E-013
 0.888266E-013
 0.887959E-013
 0.887665E-013
 0.887386E-013
 0.887123E-013
 0.886874E-013
 0.886641E-013
 0.886425E-013
 0.886225E-013
 0.886042E-013
 0.885876E-013
 0.885728E-013
 0.885598E-013
 0.885486E-013
 0.885392E-013
 0.885317E-013
 0.885261E-013
 0.885223E-013
 0.885204E-013
 0.885204E-013
 0.885223E-013
 0.885261E-013
 0.885317E-013
 0.885392E-013
 0.885486E-013
 0.885598E-013
 0.885728E-013
 0.885876E-013
 0.886042E-013
 0.886225E-013
 0.886425E-013
 0.886641E-013
 0.886874E-013
 0.887123E-013
 0.887387E-013
 0.887665E-013
 0.887959E-013
 0.888266E-013
 0.888587E-013
 0.888920E-013
 0.889267E-013
 0.889625E-013
 0.889995E-013
 0.890375E-013
 0.890767E-013
 0.891168E-013
 0.891579E-013
 0.891999E-013
 0.892427E-013
 0.892864E-013
 0.893308E-013
 0.893759E-013
 0.894217E-013
 0.894682E-013
 0.895152E-013
 0.895629E-013
 0.896110E-013
 0.896596E-013
 0.897087E-013
 0.897583E-013
 0.898082E-013
 0.898585E-013
 0.899092E-013
 0.899602E-013
 0.900115E-013
 0.900631E-013
 0.901150E-013
 0.901671E-013
 0.902194E-013
 0.902720E-013
 0.903247E-013
 0.903777E-013
 0.904309E-013
 0.904842E-013
 0.905378E-013
 0.905912E-013
 0.906462E-013
 0.906957E-013
 0.907651E-013
 0.907743E-013
 0.909420E-013
 0.907591E-013
 0.912146E-013
 0.915516E-013
 0.909420E-013
 0.913257E-013
 0.911898E-013
 0.912833E-013
 0.912901E-013
 0.913252E-013
 0.913520E-013
 0.913809E-013
 0.914092E-013
 0.914375E-013
 0.914656E-013
 0.914937E-013
 0.915216E-013
 0.915495E-013
 0.915772E-013
 0.916048E-013
 0.916322E-013
 0.916596E-013
 0.916867E-013
 0.917137E-013
 0.917405E-013
 0.917672E-013
 0.917936E-013
 0.918198E-013
 0.918458E-013
 0.918716E-013
 0.918971E-013
 0.919223E-013
 0.919472E-013
 0.919718E-013
 0.919961E-013
 0.920200E-013
 0.920435E-013
 0.920667E-013
 0.920893E-013
 0.921116E-013
 0.921333E-013
 0.921546E-013
 0.921753E-013
 0.921955E-013
 0.922151E-013
 0.922341E-013
 0.922524E-013
 0.922701E-013
 0.922871E-013
 0.923034E-013
 0.923189E-013
 0.923337E-013
 0.923477E-013
 0.923609E-013
 0.923732E-013
 0.923847E-013
 0.923953E-013
 0.924050E-013
 0.924138E-013
 0.924216E-013
 0.924285E-013
 0.924345E-013
 0.924394E-013
 0.924434E-013
 0.924464E-013
 0.924484E-013
 0.924494E-013
 0.924494E-013
 0.924484E-013
 0.924464E-013
 0.924434E-013
 0.924394E-013
 0.924345E-013
 0.924285E-013
 0.924216E-013
 0.924138E-013
 0.924050E-013
 0.923953E-013
 0.923847E-013
 0.923732E-013
 0.923609E-013
 0.923477E-013
 0.923337E-013
 0.923189E-013
 0.923034E-013
 0.922871E-013
 0.922701E-013
 0.922524E-013
 0.922341E-013
 0.922151E-013
 0.921955E-013
 0.921753E-013
 0.921546E-013
 0.921333E-013
 0.921116E-013
 0.920893E-013
 0.920666E-013
 0.920435E-013
 0.920200E-013
 0.919961E-013
 0.919718E-013
 0.919472E-013
 0.919223E-013
 0.918971E-013
 0.918716E-013
 0.918458E-013
 0.918198E-013
 0.917936E-013
 0.917672E-013
 0.917405E-013
 0.917137E-013
 0.916867E-013
 0.916595E-013
 0.916322E-013
 0.916048E-013
 0.915772E-013
 0.915495E-013
 0.915216E-013
 0.914937E-013
 0.914656E-013
 0.914375E-013
 0.914092E-013
 0.913809E-013
 0.913520E-013
 0.913251E-013
 0.912901E-013
 0.912833E-013
 0.911897E-013
 0.913257E-013
 0.909420E-013
 0.915516E-013
 0.915264E-013
 0.907743E-013
 0.911898E-013
 0.909740E-013
 0.910426E-013
 0.910026E-013
 0.909984E-013
 0.909839E-013
 0.909721E-013
 0.909598E-013
 0.909476E-013
 0.909354E-013
 0.909233E-013
 0.909112E-013
 0.908992E-013
 0.908872E-013
 0.908753E-013
 0.908634E-013
 0.908516E-013
 0.908399E-013
 0.908282E-013
 0.908166E-013
 0.908051E-013
 0.907937E-013
 0.907824E-013
 0.907711E-013
 0.907600E-013
 0.907490E-013
 0.907381E-013
 0.907273E-013
 0.907167E-013
 0.907062E-013
 0.906959E-013
 0.906857E-013
 0.906757E-013
 0.906659E-013
 0.906563E-013
 0.906469E-013
 0.906377E-013
 0.906287E-013
 0.906200E-013
 0.906115E-013
 0.906033E-013
 0.905954E-013
 0.905878E-013
 0.905804E-013
 0.905734E-013
 0.905667E-013
 0.905603E-013
 0.905542E-013
 0.905485E-013
 0.905432E-013
 0.905382E-013
 0.905336E-013
 0.905295E-013
 0.905257E-013
 0.905223E-013
 0.905193E-013
 0.905167E-013
 0.905146E-013
 0.905128E-013
 0.905115E-013
 0.905107E-013
 0.905102E-013
 0.905102E-013
 0.905107E-013
 0.905115E-013
 0.905128E-013
 0.905146E-013
 0.905167E-013
 0.905193E-013
 0.905223E-013
 0.905257E-013
 0.905295E-013
 0.905337E-013
 0.905382E-013
 0.905432E-013
 0.905485E-013
 0.905542E-013
 0.905603E-013
 0.905667E-013
 0.905734E-013
 0.905804E-013
 0.905878E-013
 0.905954E-013
 0.906034E-013
 0.906116E-013
 0.906200E-013
 0.906288E-013
 0.906377E-013
 0.906469E-013
 0.906563E-013
 0.906659E-013
 0.906757E-013
 0.906857E-013
 0.906959E-013
 0.907062E-013
 0.907167E-013
 0.907273E-013
 0.907381E-013
 0.907490E-013
 0.907600E-013
 0.907711E-013
 0.907824E-013
 0.907937E-013
 0.908051E-013
 0.908166E-013
 0.908282E-013
 0.908399E-013
 0.908516E-013
 0.908634E-013
 0.908753E-013
 0.908872E-013
 0.908992E-013
 0.909112E-013
 0.909233E-013
 0.909354E-013
 0.909476E-013
 0.909598E-013
 0.909722E-013
 0.909840E-013
 0.909984E-013
 0.910026E-013
 0.910426E-013
 0.909741E-013
 0.911897E-013
 0.907743E-013
 0.915264E-013
 0.916449E-013
 0.907651E-013
 0.912833E-013
 0.910426E-013
 0.911452E-013
 0.911161E-013
 0.911306E-013
 0.911325E-013
 0.911375E-013
 0.911419E-013
 0.911463E-013
 0.911507E-013
 0.911551E-013
 0.911595E-013
 0.911639E-013
 0.911682E-013
 0.911725E-013
 0.911768E-013
 0.911811E-013
 0.911854E-013
 0.911896E-013
 0.911938E-013
 0.911980E-013
 0.912021E-013
 0.912062E-013
 0.912103E-013
 0.912143E-013
 0.912183E-013
 0.912223E-013
 0.912262E-013
 0.912300E-013
 0.912338E-013
 0.912376E-013
 0.912413E-013
 0.912449E-013
 0.912485E-013
 0.912519E-013
 0.912553E-013
 0.912587E-013
 0.912619E-013
 0.912651E-013
 0.912682E-013
 0.912711E-013
 0.912740E-013
 0.912768E-013
 0.912795E-013
 0.912820E-013
 0.912844E-013
 0.912868E-013
 0.912890E-013
 0.912910E-013
 0.912930E-013
 0.912948E-013
 0.912964E-013
 0.912979E-013
 0.912993E-013
 0.913006E-013
 0.913016E-013
 0.913026E-013
 0.913033E-013
 0.913040E-013
 0.913044E-013
 0.913048E-013
 0.913049E-013
 0.913049E-013
 0.913048E-013
 0.913044E-013
 0.913040E-013
 0.913033E-013
 0.913026E-013
 0.913016E-013
 0.913006E-013
 0.912993E-013
 0.912979E-013
 0.912964E-013
 0.912948E-013
 0.912930E-013
 0.912910E-013
 0.912890E-013
 0.912868E-013
 0.912844E-013
 0.912820E-013
 0.912794E-013
 0.912768E-013
 0.912740E-013
 0.912711E-013
 0.912682E-013
 0.912651E-013
 0.912619E-013
 0.912587E-013
 0.912553E-013
 0.912519E-013
 0.912484E-013
 0.912449E-013
 0.912413E-013
 0.912376E-013
 0.912338E-013
 0.912300E-013
 0.912262E-013
 0.912223E-013
 0.912183E-013
 0.912143E-013
 0.912103E-013
 0.912062E-013
 0.912021E-013
 0.911980E-013
 0.911938E-013
 0.911896E-013
 0.911854E-013
 0.911811E-013
 0.911768E-013
 0.911725E-013
 0.911682E-013
 0.911639E-013
 0.911595E-013
 0.911551E-013
 0.911507E-013
 0.911463E-013
 0.911419E-013
 0.911375E-013
 0.911325E-013
 0.911306E-013
 0.911161E-013
 0.911452E-013
 0.910426E-013
 0.912833E-013
 0.907651E-013
 0.916449E-013
 0.917132E-013
 0.906957E-013
 0.912901E-013
 0.910026E-013
 0.911161E-013
 0.910753E-013
 0.910857E-013
 0.910812E-013
 0.910805E-013
 0.910790E-013
 0.910776E-013
 0.910763E-013
 0.910749E-013
 0.910735E-013
 0.910722E-013
 0.910708E-013
 0.910695E-013
 0.910681E-013
 0.910668E-013
 0.910655E-013
 0.910642E-013
 0.910629E-013
 0.910616E-013
 0.910603E-013
 0.910590E-013
 0.910577E-013
 0.910565E-013
 0.910552E-013
 0.910540E-013
 0.910528E-013
 0.910516E-013
 0.910504E-013
 0.910492E-013
 0.910481E-013
 0.910470E-013
 0.910459E-013
 0.910448E-013
 0.910437E-013
 0.910427E-013
 0.910417E-013
 0.910407E-013
 0.910397E-013
 0.910388E-013
 0.910379E-013
 0.910371E-013
 0.910362E-013
 0.910354E-013
 0.910347E-013
 0.910340E-013
 0.910333E-013
 0.910326E-013
 0.910320E-013
 0.910315E-013
 0.910310E-013
 0.910305E-013
 0.910301E-013
 0.910297E-013
 0.910294E-013
 0.910291E-013
 0.910288E-013
 0.910286E-013
 0.910285E-013
 0.910284E-013
 0.910283E-013
 0.910283E-013
 0.910284E-013
 0.910285E-013
 0.910286E-013
 0.910288E-013
 0.910291E-013
 0.910294E-013
 0.910297E-013
 0.910301E-013
 0.910305E-013
 0.910310E-013
 0.910315E-013
 0.910320E-013
 0.910326E-013
 0.910333E-013
 0.910340E-013
 0.910347E-013
 0.910354E-013
 0.910362E-013
 0.910371E-013
 0.910379E-013
 0.910388E-013
 0.910397E-013
 0.910407E-013
 0.910417E-013
 0.910427E-013
 0.910437E-013
 0.910448E-013
 0.910459E-013
 0.910470E-013
 0.910481E-013
 0.910492E-013
 0.910504E-013
 0.910516E-013
 0.910528E-013
 0.910540E-013
 0.910552E-013
 0.910565E-013
 0.910577E-013
 0.910590E-013
 0.910603E-013
 0.910616E-013
 0.910629E-013
 0.910642E-013
 0.910655E-013
 0.910668E-013
 0.910681E-013
 0.910695E-013
 0.910708E-013
 0.910722E-013
 0.910735E-013
 0.910749E-013
 0.910763E-013
 0.910776E-013
 0.910790E-013
 0.910805E-013
 0.910812E-013
 0.910857E-013
 0.910753E-013
 0.911161E-013
 0.910026E-013
 0.912901E-013
 0.906957E-013
 0.917132E-013
 0.917966E-013
 0.906462E-013
 0.913252E-013
 0.909984E-013
 0.911306E-013
 0.910857E-013
 0.910996E-013
 0.910964E-013
 0.910976E-013
 0.910978E-013
 0.910982E-013
 0.910986E-013
 0.910990E-013
 0.910993E-013
 0.910997E-013
 0.911001E-013
 0.911004E-013
 0.911008E-013
 0.911012E-013
 0.911015E-013
 0.911019E-013
 0.911022E-013
 0.911026E-013
 0.911029E-013
 0.911033E-013
 0.911036E-013
 0.911040E-013
 0.911043E-013
 0.911047E-013
 0.911050E-013
 0.911053E-013
 0.911057E-013
 0.911060E-013
 0.911063E-013
 0.911066E-013
 0.911069E-013
 0.911072E-013
 0.911075E-013
 0.911078E-013
 0.911081E-013
 0.911083E-013
 0.911086E-013
 0.911088E-013
 0.911091E-013
 0.911093E-013
 0.911096E-013
 0.911098E-013
 0.911100E-013
 0.911102E-013
 0.911104E-013
 0.911106E-013
 0.911107E-013
 0.911109E-013
 0.911110E-013
 0.911112E-013
 0.911113E-013
 0.911114E-013
 0.911115E-013
 0.911116E-013
 0.911116E-013
 0.911117E-013
 0.911117E-013
 0.911118E-013
 0.911118E-013
 0.911118E-013
 0.911118E-013
 0.911117E-013
 0.911117E-013
 0.911116E-013
 0.911116E-013
 0.911115E-013
 0.911114E-013
 0.911113E-013
 0.911112E-013
 0.911110E-013
 0.911109E-013
 0.911107E-013
 0.911106E-013
 0.911104E-013
 0.911102E-013
 0.911100E-013
 0.911098E-013
 0.911096E-013
 0.911093E-013
 0.911091E-013
 0.911088E-013
 0.911086E-013
 0.911083E-013
 0.911081E-013
 0.911078E-013
 0.911075E-013
 0.911072E-013
 0.911069E-013
 0.911066E-013
 0.911063E-013
 0.911060E-013
 0.911057E-013
 0.911053E-013
 0.911050E-013
 0.911047E-013
 0.911043E-013
 0.911040E-013
 0.911036E-013
 0.911033E-013
 0.911029E-013
 0.911026E-013
 0.911022E-013
 0.911019E-013
 0.911015E-013
 0.911012E-013
 0.911008E-013
 0.911004E-013
 0.911001E-013
 0.910997E-013
 0.910993E-013
 0.910990E-013
 0.910986E-013
 0.910982E-013
 0.910978E-013
 0.910976E-013
 0.910964E-013
 0.910996E-013
 0.910857E-013
 0.911306E-013
 0.909984E-013
 0.913251E-013
 0.906462E-013
 0.917966E-013
 0.918757E-013
 0.905912E-013
 0.913520E-013
 0.909839E-013
 0.911325E-013
 0.910812E-013
 0.910964E-013
 0.910923E-013
 0.910931E-013
 0.910928E-013
 0.910928E-013
 0.910927E-013
 0.910926E-013
 0.910925E-013
 0.910924E-013
 0.910923E-013
 0.910923E-013
 0.910922E-013
 0.910921E-013
 0.910920E-013
 0.910919E-013
 0.910918E-013
 0.910917E-013
 0.910917E-013
 0.910916E-013
 0.910915E-013
 0.910914E-013
 0.910913E-013
 0.910913E-013
 0.910912E-013
 0.910911E-013
 0.910910E-013
 0.910909E-013
 0.910909E-013
 0.910908E-013
 0.910907E-013
 0.910907E-013
 0.910906E-013
 0.910905E-013
 0.910905E-013
 0.910904E-013
 0.910904E-013
 0.910903E-013
 0.910902E-013
 0.910902E-013
 0.910901E-013
 0.910901E-013
 0.910901E-013
 0.910900E-013
 0.910900E-013
 0.910899E-013
 0.910899E-013
 0.910899E-013
 0.910898E-013
 0.910898E-013
 0.910898E-013
 0.910898E-013
 0.910897E-013
 0.910897E-013
 0.910897E-013
 0.910897E-013
 0.910897E-013
 0.910897E-013
 0.910897E-013
 0.910897E-013
 0.910897E-013
 0.910897E-013
 0.910897E-013
 0.910897E-013
 0.910897E-013
 0.910897E-013
 0.910898E-013
 0.910898E-013
 0.910898E-013
 0.910898E-013
 0.910899E-013
 0.910899E-013
 0.910899E-013
 0.910900E-013
 0.910900E-013
 0.910901E-013
 0.910901E-013
 0.910901E-013
 0.910902E-013
 0.910902E-013
 0.910903E-013
 0.910904E-013
 0.910904E-013
 0.910905E-013
 0.910905E-013
 0.910906E-013
 0.910907E-013
 0.910907E-013
 0.910908E-013
 0.910909E-013
 0.910909E-013
 0.910910E-013
 0.910911E-013
 0.910912E-013
 0.910913E-013
 0.910913E-013
 0.910914E-013
 0.910915E-013
 0.910916E-013
 0.910917E-013
 0.910917E-013
 0.910918E-013
 0.910919E-013
 0.910920E-013
 0.910921E-013
 0.910922E-013
 0.910923E-013
 0.910923E-013
 0.910924E-013
 0.910925E-013
 0.910926E-013
 0.910927E-013
 0.910928E-013
 0.910928E-013
 0.910931E-013
 0.910923E-013
 0.910964E-013
 0.910812E-013
 0.911325E-013
 0.909840E-013
 0.913520E-013
 0.905912E-013
 0.918757E-013
 0.919555E-013
 0.905378E-013
 0.913809E-013
 0.909721E-013
 0.911375E-013
 0.910805E-013
 0.910976E-013
 0.910931E-013
 0.910942E-013
 0.910940E-013
 0.910941E-013
 0.910941E-013
 0.910941E-013
 0.910941E-013
 0.910941E-013
 0.910942E-013
 0.910942E-013
 0.910942E-013
 0.910942E-013
 0.910942E-013
 0.910943E-013
 0.910943E-013
 0.910943E-013
 0.910943E-013
 0.910943E-013
 0.910944E-013
 0.910944E-013
 0.910944E-013
 0.910944E-013
 0.910944E-013
 0.910945E-013
 0.910945E-013
 0.910945E-013
 0.910945E-013
 0.910945E-013
 0.910946E-013
 0.910946E-013
 0.910946E-013
 0.910946E-013
 0.910946E-013
 0.910947E-013
 0.910947E-013
 0.910947E-013
 0.910947E-013
 0.910947E-013
 0.910947E-013
 0.910948E-013
 0.910948E-013
 0.910948E-013
 0.910948E-013
 0.910948E-013
 0.910948E-013
 0.910949E-013
 0.910949E-013
 0.910949E-013
 0.910949E-013
 0.910949E-013
 0.910949E-013
 0.910949E-013
 0.910949E-013
 0.910949E-013
 0.910949E-013
 0.910949E-013
 0.910949E-013
 0.910949E-013
 0.910949E-013
 0.910949E-013
 0.910949E-013
 0.910949E-013
 0.910949E-013
 0.910949E-013
 0.910949E-013
 0.910949E-013
 0.910949E-013
 0.910949E-013
 0.910949E-013
 0.910948E-013
 0.910948E-013
 0.910948E-013
 0.910948E-013
 0.910948E-013
 0.910948E-013
 0.910947E-013
 0.910947E-013
 0.910947E-013
 0.910947E-013
 0.910947E-013
 0.910947E-013
 0.910946E-013
 0.910946E-013
 0.910946E-013
 0.910946E-013
 0.910946E-013
 0.910945E-013
 0.910945E-013
 0.910945E-013
 0.910945E-013
 0.910945E-013
 0.910944E-013
 0.910944E-013
 0.910944E-013
 0.910944E-013
 0.910944E-013
 0.910943E-013
 0.910943E-013
 0.910943E-013
 0.910943E-013
 0.910943E-013
 0.910942E-013
 0.910942E-013
 0.910942E-013
 0.910942E-013
 0.910942E-013
 0.910941E-013
 0.910941E-013
 0.910941E-013
 0.910941E-013
 0.910941E-013
 0.910940E-013
 0.910942E-013
 0.910931E-013
 0.910976E-013
 0.910805E-013
 0.911375E-013
 0.909722E-013
 0.913809E-013
 0.905378E-013
 0.919555E-013
 0.920348E-013
 0.904842E-013
 0.914092E-013
 0.909598E-013
 0.911419E-013
 0.910790E-013
 0.910978E-013
 0.910928E-013
 0.910940E-013
 0.910938E-013
 0.910938E-013
 0.910938E-013
 0.910938E-013
 0.910938E-013
 0.910938E-013
 0.910938E-013
 0.910938E-013
 0.910938E-013
 0.910938E-013
 0.910938E-013
 0.910938E-013
 0.910938E-013
 0.910938E-013
 0.910938E-013
 0.910938E-013
 0.910938E-013
 0.910938E-013
 0.910938E-013
 0.910938E-013
 0.910938E-013
 0.910938E-013
 0.910938E-013
 0.910938E-013
 0.910938E-013
 0.910938E-013
 0.910938E-013
 0.910938E-013
 0.910938E-013
 0.910938E-013
 0.910938E-013
 0.910938E-013
 0.910938E-013
 0.910938E-013
 0.910938E-013
 0.910938E-013
 0.910938E-013
 0.910938E-013
 0.910938E-013
 0.910938E-013
 0.910938E-013
 0.910938E-013
 0.910938E-013
 0.910938E-013
 0.910938E-013
 0.910938E-013
 0.910938E-013
 0.910938E-013
 0.910938E-013
 0.910938E-013
 0.910938E-013
 0.910938E-013
 0.910939E-013
 0.910939E-013
 0.910939E-013
 0.910939E-013
 0.910939E-013
 0.910939E-013
 0.910938E-013
 0.910938E-013
 0.910938E-013
 0.910938E-013
 0.910938E-013
 0.910938E-013
 0.910938E-013
 0.910938E-013
 0.910938E-013
 0.910938E-013
 0.910938E-013
 0.910938E-013
 0.910938E-013
 0.910938E-013
 0.910938E-013
 0.910938E-013
 0.910938E-013
 0.910938E-013
 0.910938E-013
 0.910938E-013
 0.910938E-013
 0.910938E-013
 0.910938E-013
 0.910938E-013
 0.910938E-013
 0.910938E-013
 0.910938E-013
 0.910938E-013
 0.910938E-013
 0.910938E-013
 0.910938E-013
 0.910938E-013
 0.910938E-013
 0.910938E-013
 0.910938E-013
 0.910938E-013
 0.910938E-013
 0.910938E-013
 0.910938E-013
 0.910938E-013
 0.910938E-013
 0.910938E-013
 0.910938E-013
 0.910938E-013
 0.910938E-013
 0.910938E-013
 0.910938E-013
 0.910938E-013
 0.910938E-013
 0.910938E-013
 0.910938E-013
 0.910938E-013
 0.910940E-013
 0.910928E-013
 0.910978E-013
 0.910790E-013
 0.911419E-013
 0.909598E-013
 0.914092E-013
 0.904842E-013
 0.920348E-013
 0.921140E-013
 0.904309E-013
 0.914375E-013
 0.909476E-013
 0.911463E-013
 0.910776E-013
 0.910982E-013
 0.910928E-013
 0.910941E-013
 0.910938E-013
 0.910939E-013
 0.910938E-013
 0.910938E-013
 0.910938E-013
 0.910938E-013
 0.910939E-013
 0.910939E-013
 0.910939E-013
 0.910939E-013
 0.910939E-013
 0.910939E-013
 0.910939E-013
 0.910939E-013
 0.910939E-013
 0.910939E-013
 0.910939E-013
 0.910939E-013
 0.910939E-013
 0.910939E-013
 0.910939E-013
 0.910939E-013
 0.910939E-013
 0.910939E-013
 0.910939E-013
 0.910939E-013
 0.910939E-013
 0.910939E-013
 0.910939E-013
 0.910939E-013
 0.910940E-013
 0.910940E-013
 0.910940E-013
 0.910940E-013
 0.910940E-013
 0.910940E-013
 0.910940E-013
 0.910940E-013
 0.910940E-013
 0.910940E-013