# vtk DataFile Version 3.0
Solution data
ASCII
DATASET STRUCTURED_GRID
DIMENSIONS 128 128 1
POINTS 16384  double
      0.000004      0.000004      0.000000
      0.000012      0.000004      0.000000
      0.000020      0.000004      0.000000
      0.000027      0.000004      0.000000
      0.000035      0.000004      0.000000
      0.000043      0.000004      0.000000
      0.000051      0.000004      0.000000
      0.000059      0.000004      0.000000
      0.000066      0.000004      0.000000
      0.000074      0.000004      0.000000
      0.000082      0.000004      0.000000
      0.000090      0.000004      0.000000
      0.000098      0.000004      0.000000
      0.000105      0.000004      0.000000
      0.000113      0.000004      0.000000
      0.000121      0.000004      0.000000
      0.000129      0.000004      0.000000
      0.000137      0.000004      0.000000
      0.000145      0.000004      0.000000
      0.000152      0.000004      0.000000
      0.000160      0.000004      0.000000
      0.000168      0.000004      0.000000
      0.000176      0.000004      0.000000
      0.000184      0.000004      0.000000
      0.000191      0.000004      0.000000
      0.000199      0.000004      0.000000
      0.000207      0.000004      0.000000
      0.000215      0.000004      0.000000
      0.000223      0.000004      0.000000
      0.000230      0.000004      0.000000
      0.000238      0.000004      0.000000
      0.000246      0.000004      0.000000
      0.000254      0.000004      0.000000
      0.000262      0.000004      0.000000
      0.000270      0.000004      0.000000
      0.000277      0.000004      0.000000
      0.000285      0.000004      0.000000
      0.000293      0.000004      0.000000
      0.000301      0.000004      0.000000
      0.000309      0.000004      0.000000
      0.000316      0.000004      0.000000
      0.000324      0.000004      0.000000
      0.000332      0.000004      0.000000
      0.000340      0.000004      0.000000
      0.000348      0.000004      0.000000
      0.000355      0.000004      0.000000
      0.000363      0.000004      0.000000
      0.000371      0.000004      0.000000
      0.000379      0.000004      0.000000
      0.000387      0.000004      0.000000
      0.000395      0.000004      0.000000
      0.000402      0.000004      0.000000
      0.000410      0.000004      0.000000
      0.000418      0.000004      0.000000
      0.000426      0.000004      0.000000
      0.000434      0.000004      0.000000
      0.000441      0.000004      0.000000
      0.000449      0.000004      0.000000
      0.000457      0.000004      0.000000
      0.000465      0.000004      0.000000
      0.000473      0.000004      0.000000
      0.000480      0.000004      0.000000
      0.000488      0.000004      0.000000
      0.000496      0.000004      0.000000
      0.000504      0.000004      0.000000
      0.000512      0.000004      0.000000
      0.000520      0.000004      0.000000
      0.000527      0.000004      0.000000
      0.000535      0.000004      0.000000
      0.000543      0.000004      0.000000
      0.000551      0.000004      0.000000
      0.000559      0.000004      0.000000
      0.000566      0.000004      0.000000
      0.000574      0.000004      0.000000
      0.000582      0.000004      0.000000
      0.000590      0.000004      0.000000
      0.000598      0.000004      0.000000
      0.000605      0.000004      0.000000
      0.000613      0.000004      0.000000
      0.000621      0.000004      0.000000
      0.000629      0.000004      0.000000
      0.000637      0.000004      0.000000
      0.000645      0.000004      0.000000
      0.000652      0.000004      0.000000
      0.000660      0.000004      0.000000
      0.000668      0.000004      0.000000
      0.000676      0.000004      0.000000
      0.000684      0.000004      0.000000
      0.000691      0.000004      0.000000
      0.000699      0.000004      0.000000
      0.000707      0.000004      0.000000
      0.000715      0.000004      0.000000
      0.000723      0.000004      0.000000
      0.000730      0.000004      0.000000
      0.000738      0.000004      0.000000
      0.000746      0.000004      0.000000
      0.000754      0.000004      0.000000
      0.000762      0.000004      0.000000
      0.000770      0.000004      0.000000
      0.000777      0.000004      0.000000
      0.000785      0.000004      0.000000
      0.000793      0.000004      0.000000
      0.000801      0.000004      0.000000
      0.000809      0.000004      0.000000
      0.000816      0.000004      0.000000
      0.000824      0.000004      0.000000
      0.000832      0.000004      0.000000
      0.000840      0.000004      0.000000
      0.000848      0.000004      0.000000
      0.000855      0.000004      0.000000
      0.000863      0.000004      0.000000
      0.000871      0.000004      0.000000
      0.000879      0.000004      0.000000
      0.000887      0.000004      0.000000
      0.000895      0.000004      0.000000
      0.000902      0.000004      0.000000
      0.000910      0.000004      0.000000
      0.000918      0.000004      0.000000
      0.000926      0.000004      0.000000
      0.000934      0.000004      0.000000
      0.000941      0.000004      0.000000
      0.000949      0.000004      0.000000
      0.000957      0.000004      0.000000
      0.000965      0.000004      0.000000
      0.000973      0.000004      0.000000
      0.000980      0.000004      0.000000
      0.000988      0.000004      0.000000
      0.000996      0.000004      0.000000
      0.000004      0.000012      0.000000
      0.000012      0.000012      0.000000
      0.000020      0.000012      0.000000
      0.000027      0.000012      0.000000
      0.000035      0.000012      0.000000
      0.000043      0.000012      0.000000
      0.000051      0.000012      0.000000
      0.000059      0.000012      0.000000
      0.000066      0.000012      0.000000
      0.000074      0.000012      0.000000
      0.000082      0.000012      0.000000
      0.000090      0.000012      0.000000
      0.000098      0.000012      0.000000
      0.000105      0.000012      0.000000
      0.000113      0.000012      0.000000
      0.000121      0.000012      0.000000
      0.000129      0.000012      0.000000
      0.000137      0.000012      0.000000
      0.000145      0.000012      0.000000
      0.000152      0.000012      0.000000
      0.000160      0.000012      0.000000
      0.000168      0.000012      0.000000
      0.000176      0.000012      0.000000
      0.000184      0.000012      0.000000
      0.000191      0.000012      0.000000
      0.000199      0.000012      0.000000
      0.000207      0.000012      0.000000
      0.000215      0.000012      0.000000
      0.000223      0.000012      0.000000
      0.000230      0.000012      0.000000
      0.000238      0.000012      0.000000
      0.000246      0.000012      0.000000
      0.000254      0.000012      0.000000
      0.000262      0.000012      0.000000
      0.000270      0.000012      0.000000
      0.000277      0.000012      0.000000
      0.000285      0.000012      0.000000
      0.000293      0.000012      0.000000
      0.000301      0.000012      0.000000
      0.000309      0.000012      0.000000
      0.000316      0.000012      0.000000
      0.000324      0.000012      0.000000
      0.000332      0.000012      0.000000
      0.000340      0.000012      0.000000
      0.000348      0.000012      0.000000
      0.000355      0.000012      0.000000
      0.000363      0.000012      0.000000
      0.000371      0.000012      0.000000
      0.000379      0.000012      0.000000
      0.000387      0.000012      0.000000
      0.000395      0.000012      0.000000
      0.000402      0.000012      0.000000
      0.000410      0.000012      0.000000
      0.000418      0.000012      0.000000
      0.000426      0.000012      0.000000
      0.000434      0.000012      0.000000
      0.000441      0.000012      0.000000
      0.000449      0.000012      0.000000
      0.000457      0.000012      0.000000
      0.000465      0.000012      0.000000
      0.000473      0.000012      0.000000
      0.000480      0.000012      0.000000
      0.000488      0.000012      0.000000
      0.000496      0.000012      0.000000
      0.000504      0.000012      0.000000
      0.000512      0.000012      0.000000
      0.000520      0.000012      0.000000
      0.000527      0.000012      0.000000
      0.000535      0.000012      0.000000
      0.000543      0.000012      0.000000
      0.000551      0.000012      0.000000
      0.000559      0.000012      0.000000
      0.000566      0.000012      0.000000
      0.000574      0.000012      0.000000
      0.000582      0.000012      0.000000
      0.000590      0.000012      0.000000
      0.000598      0.000012      0.000000
      0.000605      0.000012      0.000000
      0.000613      0.000012      0.000000
      0.000621      0.000012      0.000000
      0.000629      0.000012      0.000000
      0.000637      0.000012      0.000000
      0.000645      0.000012      0.000000
      0.000652      0.000012      0.000000
      0.000660      0.000012      0.000000
      0.000668      0.000012      0.000000
      0.000676      0.000012      0.000000
      0.000684      0.000012      0.000000
      0.000691      0.000012      0.000000
      0.000699      0.000012      0.000000
      0.000707      0.000012      0.000000
      0.000715      0.000012      0.000000
      0.000723      0.000012      0.000000
      0.000730      0.000012      0.000000
      0.000738      0.000012      0.000000
      0.000746      0.000012      0.000000
      0.000754      0.000012      0.000000
      0.000762      0.000012      0.000000
      0.000770      0.000012      0.000000
      0.000777      0.000012      0.000000
      0.000785      0.000012      0.000000
[...]
POINT_DATA 16384
SCALARS rhoe double
LOOKUP_TABLE default
 0.916607E-013
 0.912223E-013
 0.915493E-013
 0.915332E-013
 0.916494E-013
 0.917208E-013
 0.918052E-013
 0.918860E-013
 0.919673E-013
 0.920482E-013
 0.921288E-013
 0.922092E-013
 0.922893E-013
 0.923691E-013
 0.924486E-013
 0.925278E-013
 0.926066E-013
 0.926850E-013
 0.927631E-013
 0.928407E-013
 0.929178E-013
 0.929944E-013
 0.930705E-013
 0.931460E-013
 0.932209E-013
 0.932952E-013
 0.933687E-013
 0.934415E-013
 0.935135E-013
 0.935847E-013
 0.936549E-013
 0.937242E-013
 0.937924E-013
 0.938595E-013
 0.939255E-013
 0.939903E-013
 0.940537E-013
 0.941158E-013
 0.941764E-013
 0.942355E-013
 0.942931E-013
 0.943489E-013
 0.944030E-013
 0.944553E-013
 0.945057E-013
 0.945542E-013
 0.946006E-013
 0.946449E-013
 0.946870E-013
 0.947268E-013
 0.947643E-013
 0.947995E-013
 0.948321E-013
 0.948623E-013
 0.948899E-013
 0.949150E-013
 0.949373E-013
 0.949570E-013
 0.949739E-013
 0.949880E-013
 0.949994E-013
 0.950079E-013
 0.950136E-013
 0.950164E-013
 0.950165E-013
 0.950136E-013
 0.950079E-013
 0.949994E-013
 0.949880E-013
 0.949739E-013
 0.949570E-013
 0.949373E-013
 0.949150E-013
 0.948900E-013
 0.948623E-013
 0.948322E-013
 0.947995E-013
 0.947644E-013
 0.947268E-013
 0.946870E-013
 0.946449E-013
 0.946006E-013
 0.945542E-013
 0.945058E-013
 0.944554E-013
 0.944031E-013
 0.943490E-013
 0.942931E-013
 0.942356E-013
 0.941765E-013
 0.941158E-013
 0.940537E-013
 0.939903E-013
 0.939256E-013
 0.938596E-013
 0.937924E-013
 0.937242E-013
 0.936550E-013
 0.935847E-013
 0.935136E-013
 0.934416E-013
 0.933688E-013
 0.932952E-013
 0.932210E-013
 0.931461E-013
 0.930705E-013
 0.929945E-013
 0.929178E-013
 0.928407E-013
 0.927631E-013
 0.926851E-013
 0.926066E-013
 0.925278E-013
 0.924487E-013
 0.923692E-013
 0.922893E-013
 0.922092E-013
 0.921288E-013
 0.920482E-013
 0.919673E-013
 0.918860E-013
 0.918052E-013
 0.917208E-013
 0.916494E-013
 0.915332E-013
 0.915493E-013
 0.912224E-013
 0.916607E-013
 0.912223E-013
 0.907630E-013
 0.909422E-013
 0.907798E-013
 0.907672E-013
 0.906996E-013
 0.906496E-013
 0.905949E-013
 0.905415E-013
 0.904880E-013
 0.904348E-013
 0.903817E-013
 0.903289E-013
 0.902762E-013
 0.902237E-013
 0.901715E-013
 0.901195E-013
 0.900677E-013
 0.900162E-013
 0.899650E-013
 0.899140E-013
 0.898634E-013
 0.898132E-013
 0.897633E-013
 0.897139E-013
 0.896648E-013
 0.896163E-013
 0.895682E-013
 0.895206E-013
 0.894736E-013
 0.894272E-013
 0.893814E-013
 0.893363E-013
 0.892919E-013
 0.892483E-013
 0.892055E-013
 0.891636E-013
 0.891225E-013
 0.890824E-013
 0.890433E-013
 0.890053E-013
 0.889683E-013
 0.889325E-013
 0.888979E-013
 0.888645E-013
 0.888325E-013
 0.888018E-013
 0.887724E-013
 0.887446E-013
 0.887182E-013
 0.886933E-013
 0.886701E-013
 0.886484E-013
 0.886284E-013
 0.886101E-013
 0.885936E-013
 0.885788E-013
 0.885658E-013
 0.885546E-013
 0.885452E-013
 0.885377E-013
 0.885320E-013
 0.885282E-013
 0.885263E-013
 0.885263E-013
 0.885282E-013
 0.885320E-013
 0.885377E-013
 0.885452E-013
 0.885546E-013
 0.885658E-013
 0.885788E-013
 0.885936E-013
 0.886102E-013
 0.886285E-013
 0.886484E-013
 0.886701E-013
 0.886934E-013
 0.887182E-013
 0.887446E-013
 0.887725E-013
 0.888018E-013
 0.888325E-013
 0.888645E-013
 0.888979E-013
 0.889325E-013
 0.889683E-013
 0.890053E-013
 0.890433E-013
 0.890824E-013
 0.891225E-013
 0.891636E-013
 0.892056E-013
 0.892484E-013
 0.892920E-013
 0.893363E-013
 0.893814E-013
 0.894272E-013
 0.894736E-013
 0.895206E-013
 0.895682E-013
 0.896163E-013
 0.896649E-013
 0.897139E-013
 0.897634E-013
 0.898132E-013
 0.898635E-013
 0.899141E-013
 0.899650E-013
 0.900162E-013
 0.900677E-013
 0.901195E-013
 0.901715E-013
 0.902237E-013
 0.902762E-013
 0.903289E-013
 0.903817E-013
 0.904348E-013
 0.904880E-013
 0.905415E-013
 0.905949E-013
 0.906496E-013
 0.906996E-013
 0.907672E-013
 0.907798E-013
 0.909422E-013
 0.907630E-013
 0.912224E-013
 0.915493E-013
 0.909422E-013
 0.913162E-013
 0.911877E-013
 0.912752E-013
 0.912836E-013
 0.913168E-013
 0.913431E-013
 0.913710E-013
 0.913985E-013
 0.914259E-013
 0.914532E-013
 0.914804E-013
 0.915075E-013
 0.915345E-013
 0.915614E-013
 0.915882E-013
 0.916148E-013
 0.916413E-013
 0.916676E-013
 0.916938E-013
 0.917198E-013
 0.917456E-013
 0.917713E-013
 0.917967E-013
 0.918219E-013
 0.918469E-013
 0.918717E-013
 0.918961E-013
 0.919203E-013
 0.919442E-013
 0.919677E-013
 0.919909E-013
 0.920137E-013
 0.920361E-013
 0.920582E-013
 0.920797E-013
 0.921009E-013
 0.921215E-013
 0.921416E-013
 0.921612E-013
 0.921802E-013
 0.921986E-013
 0.922164E-013
 0.922336E-013
 0.922501E-013
 0.922659E-013
 0.922810E-013
 0.922953E-013
 0.923089E-013
 0.923217E-013
 0.923337E-013
 0.923448E-013
 0.923551E-013
 0.923645E-013
 0.923730E-013
 0.923806E-013
 0.923873E-013
 0.923931E-013
 0.923979E-013
 0.924018E-013
 0.924047E-013
 0.924067E-013
 0.924076E-013
 0.924076E-013
 0.924067E-013
 0.924047E-013
 0.924018E-013
 0.923979E-013
 0.923931E-013
 0.923873E-013
 0.923806E-013
 0.923730E-013
 0.923645E-013
 0.923551E-013
 0.923448E-013
 0.923336E-013
 0.923217E-013
 0.923089E-013
 0.922953E-013
 0.922810E-013
 0.922659E-013
 0.922501E-013
 0.922336E-013
 0.922164E-013
 0.921986E-013
 0.921802E-013
 0.921612E-013
 0.921416E-013
 0.921215E-013
 0.921008E-013
 0.920797E-013
 0.920581E-013
 0.920361E-013
 0.920137E-013
 0.919909E-013
 0.919677E-013
 0.919441E-013
 0.919203E-013
 0.918961E-013
 0.918716E-013
 0.918469E-013
 0.918219E-013
 0.917967E-013
 0.917713E-013
 0.917456E-013
 0.917198E-013
 0.916938E-013
 0.916676E-013
 0.916412E-013
 0.916147E-013
 0.915881E-013
 0.915614E-013
 0.915345E-013
 0.915075E-013
 0.914804E-013
 0.914532E-013
 0.914259E-013
 0.913985E-013
 0.913710E-013
 0.913431E-013
 0.913168E-013
 0.912835E-013
 0.912751E-013
 0.911877E-013
 0.913162E-013
 0.909422E-013
 0.915493E-013
 0.915332E-013
 0.907798E-013
 0.911877E-013
 0.909823E-013
 0.910454E-013
 0.910092E-013
 0.910046E-013
 0.909913E-013
 0.909801E-013
 0.909686E-013
 0.909571E-013
 0.909457E-013
 0.909344E-013
 0.909230E-013
 0.909118E-013
 0.909005E-013
 0.908894E-013
 0.908782E-013
 0.908672E-013
 0.908562E-013
 0.908452E-013
 0.908344E-013
 0.908236E-013
 0.908129E-013
 0.908022E-013
 0.907917E-013
 0.907813E-013
 0.907709E-013
 0.907607E-013
 0.907506E-013
 0.907407E-013
 0.907308E-013
 0.907211E-013
 0.907116E-013
 0.907022E-013
 0.906930E-013
 0.906840E-013
 0.906752E-013
 0.906666E-013
 0.906582E-013
 0.906500E-013
 0.906420E-013
 0.906343E-013
 0.906269E-013
 0.906197E-013
 0.906128E-013
 0.906062E-013
 0.905999E-013
 0.905939E-013
 0.905882E-013
 0.905829E-013
 0.905779E-013
 0.905732E-013
 0.905689E-013
 0.905650E-013
 0.905614E-013
 0.905583E-013
 0.905555E-013
 0.905531E-013
 0.905510E-013
 0.905494E-013
 0.905482E-013
 0.905474E-013
 0.905470E-013
 0.905470E-013
 0.905474E-013
 0.905482E-013
 0.905494E-013
 0.905510E-013
 0.905531E-013
 0.905555E-013
 0.905583E-013
 0.905615E-013
 0.905650E-013
 0.905690E-013
 0.905733E-013
 0.905779E-013
 0.905829E-013
 0.905883E-013
 0.905939E-013
 0.905999E-013
 0.906062E-013
 0.906128E-013
 0.906197E-013
 0.906269E-013
 0.906343E-013
 0.906420E-013
 0.906500E-013
 0.906582E-013
 0.906666E-013
 0.906752E-013
 0.906840E-013
 0.906930E-013
 0.907022E-013
 0.907116E-013
 0.907211E-013
 0.907308E-013
 0.907407E-013
 0.907506E-013
 0.907607E-013
 0.907710E-013
 0.907813E-013
 0.907917E-013
 0.908023E-013
 0.908129E-013
 0.908236E-013
 0.908344E-013
 0.908453E-013
 0.908562E-013
 0.908672E-013
 0.908783E-013
 0.908894E-013
 0.909006E-013
 0.909118E-013
 0.909231E-013
 0.909344E-013
 0.909457E-013
 0.909572E-013
 0.909686E-013
 0.909802E-013
 0.909913E-013
 0.910046E-013
 0.910092E-013
 0.910454E-013
 0.909823E-013
 0.911877E-013
 0.907798E-013
 0.915332E-013
 0.916494E-013
 0.907672E-013
 0.912752E-013
 0.910454E-013
 0.911400E-013
 0.911142E-013
 0.911268E-013
 0.911287E-013
 0.911332E-013
 0.911371E-013
 0.911411E-013
 0.911451E-013
 0.911491E-013
 0.911530E-013
 0.911570E-013
 0.911609E-013
 0.911648E-013
 0.911687E-013
 0.911726E-013
 0.911764E-013
 0.911802E-013
 0.911840E-013
 0.911878E-013
 0.911915E-013
 0.911953E-013
 0.911989E-013
 0.912026E-013
 0.912062E-013
 0.912098E-013
 0.912133E-013
 0.912168E-013
 0.912202E-013
 0.912236E-013
 0.912269E-013
 0.912302E-013
 0.912334E-013
 0.912366E-013
 0.912396E-013
 0.912427E-013
 0.912456E-013
 0.912485E-013
 0.912512E-013
 0.912539E-013
 0.912565E-013
 0.912590E-013
 0.912614E-013
 0.912638E-013
 0.912660E-013
 0.912681E-013
 0.912700E-013
 0.912719E-013
 0.912737E-013
 0.912753E-013
 0.912768E-013
 0.912782E-013
 0.912794E-013
 0.912805E-013
 0.912815E-013
 0.912823E-013
 0.912831E-013
 0.912836E-013
 0.912840E-013
 0.912843E-013
 0.912845E-013
 0.912845E-013
 0.912843E-013
 0.912840E-013
 0.912836E-013
 0.912830E-013
 0.912823E-013
 0.912815E-013
 0.912805E-013
 0.912794E-013
 0.912782E-013
 0.912768E-013
 0.912753E-013
 0.912737E-013
 0.912719E-013
 0.912700E-013
 0.912680E-013
 0.912660E-013
 0.912637E-013
 0.912614E-013
 0.912590E-013
 0.912565E-013
 0.912539E-013
 0.912512E-013
 0.912484E-013
 0.912456E-013
 0.912427E-013
 0.912396E-013
 0.912366E-013
 0.912334E-013
 0.912302E-013
 0.912269E-013
 0.912236E-013
 0.912202E-013
 0.912168E-013
 0.912133E-013
 0.912097E-013
 0.912062E-013
 0.912026E-013
 0.911989E-013
 0.911952E-013
 0.911915E-013
 0.911878E-013
 0.911840E-013
 0.911802E-013
 0.911764E-013
 0.911726E-013
 0.911687E-013
 0.911648E-013
 0.911609E-013
 0.911570E-013
 0.911530E-013
 0.911491E-013
 0.911451E-013
 0.911411E-013
 0.911371E-013
 0.911332E-013
 0.911287E-013
 0.911268E-013
 0.911142E-013
 0.911400E-013
 0.910454E-013
 0.912751E-013
 0.907672E-013
 0.916494E-013
 0.917208E-013
 0.906996E-013
 0.912836E-013
 0.910092E-013
 0.911142E-013
 0.910778E-013
 0.910867E-013
 0.910829E-013
 0.910823E-013
 0.910810E-013
 0.910798E-013
 0.910786E-013
 0.910774E-013
 0.910762E-013
 0.910750E-013
 0.910739E-013
 0.910727E-013
 0.910715E-013
 0.910704E-013
 0.910692E-013
 0.910681E-013
 0.910670E-013
 0.910658E-013
 0.910647E-013
 0.910636E-013
 0.910625E-013
 0.910614E-013
 0.910603E-013
 0.910593E-013
 0.910582E-013
 0.910572E-013
 0.910561E-013
 0.910551E-013
 0.910541E-013
 0.910532E-013
 0.910522E-013
 0.910512E-013
 0.910503E-013
 0.910494E-013
 0.910486E-013
 0.910477E-013
 0.910469E-013
 0.910461E-013
 0.910453E-013
 0.910445E-013
 0.910438E-013
 0.910431E-013
 0.910425E-013
 0.910419E-013
 0.910413E-013
 0.910407E-013
 0.910402E-013
 0.910397E-013
 0.910393E-013
 0.910389E-013
 0.910385E-013
 0.910382E-013
 0.910379E-013
 0.910376E-013
 0.910374E-013
 0.910372E-013
 0.910371E-013
 0.910370E-013
 0.910370E-013
 0.910370E-013
 0.910370E-013
 0.910371E-013
 0.910372E-013
 0.910374E-013
 0.910376E-013
 0.910379E-013
 0.910382E-013
 0.910385E-013
 0.910389E-013
 0.910393E-013
 0.910397E-013
 0.910402E-013
 0.910407E-013
 0.910413E-013
 0.910419E-013
 0.910425E-013
 0.910431E-013
 0.910438E-013
 0.910446E-013
 0.910453E-013
 0.910461E-013
 0.910469E-013
 0.910477E-013
 0.910486E-013
 0.910494E-013
 0.910503E-013
 0.910513E-013
 0.910522E-013
 0.910532E-013
 0.910541E-013
 0.910551E-013
 0.910561E-013
 0.910572E-013
 0.910582E-013
 0.910593E-013
 0.910603E-013
 0.910614E-013
 0.910625E-013
 0.910636E-013
 0.910647E-013
 0.910658E-013
 0.910670E-013
 0.910681E-013
 0.910692E-013
 0.910704E-013
 0.910715E-013
 0.910727E-013
 0.910739E-013
 0.910751E-013
 0.910762E-013
 0.910774E-013
 0.910786E-013
 0.910798E-013
 0.910810E-013
 0.910823E-013
 0.910829E-013
 0.910867E-013
 0.910778E-013
 0.911142E-013
 0.910092E-013
 0.912835E-013
 0.906996E-013
 0.917208E-013
 0.918052E-013
 0.906496E-013
 0.913168E-013
 0.910046E-013
 0.911268E-013
 0.910867E-013
 0.910986E-013
 0.910960E-013
 0.910970E-013
 0.910971E-013
 0.910975E-013
 0.910978E-013
 0.910981E-013
 0.910984E-013
 0.910987E-013
 0.910990E-013
 0.910993E-013
 0.910996E-013
 0.910999E-013
 0.911002E-013
 0.911005E-013
 0.911008E-013
 0.911011E-013
 0.911014E-013
 0.911017E-013
 0.911020E-013
 0.911023E-013
 0.911026E-013
 0.911029E-013
 0.911031E-013
 0.911034E-013
 0.911037E-013
 0.911040E-013
 0.911042E-013
 0.911045E-013
 0.911047E-013
 0.911050E-013
 0.911052E-013
 0.911055E-013
 0.911057E-013
 0.911059E-013
 0.911061E-013
 0.911064E-013
 0.911066E-013
 0.911068E-013
 0.911070E-013
 0.911071E-013
 0.911073E-013
 0.911075E-013
 0.911076E-013
 0.911078E-013
 0.911079E-013
 0.911081E-013
 0.911082E-013
 0.911083E-013
 0.911084E-013
 0.911085E-013
 0.911086E-013
 0.911086E-013
 0.911087E-013
 0.911087E-013
 0.911088E-013
 0.911088E-013
 0.911088E-013
 0.911088E-013
 0.911088E-013
 0.911088E-013
 0.911087E-013
 0.911087E-013
 0.911086E-013
 0.911086E-013
 0.911085E-013
 0.911084E-013
 0.911083E-013
 0.911082E-013
 0.911081E-013
 0.911079E-013
 0.911078E-013
 0.911076E-013
 0.911075E-013
 0.911073E-013
 0.911071E-013
 0.911070E-013
 0.911068E-013
 0.911066E-013
 0.911064E-013
 0.911061E-013
 0.911059E-013
 0.911057E-013
 0.911055E-013
 0.911052E-013
 0.911050E-013
 0.911047E-013
 0.911045E-013
 0.911042E-013
 0.911040E-013
 0.911037E-013
 0.911034E-013
 0.911031E-013
 0.911029E-013
 0.911026E-013
 0.911023E-013
 0.911020E-013
 0.911017E-013
 0.911014E-013
 0.911011E-013
 0.911008E-013
 0.911005E-013
 0.911002E-013
 0.910999E-013
 0.910996E-013
 0.910993E-013
 0.910990E-013
 0.910987E-013
 0.910984E-013
 0.910981E-013
 0.910978E-013
 0.910975E-013
 0.910971E-013
 0.910970E-013
 0.910960E-013
 0.910986E-013
 0.910867E-013
 0.911268E-013
 0.910046E-013
 0.913168E-013
 0.906496E-013
 0.918052E-013
 0.918860E-013
 0.905949E-013
 0.913431E-013
 0.909913E-013
 0.911287E-013
 0.910829E-013
 0.910960E-013
 0.910926E-013
 0.910933E-013
 0.910930E-013
 0.910930E-013
 0.910929E-013
 0.910929E-013
 0.910928E-013
 0.910927E-013
 0.910926E-013
 0.910926E-013
 0.910925E-013
 0.910924E-013
 0.910924E-013
 0.910923E-013
 0.910922E-013
 0.910922E-013
 0.910921E-013
 0.910920E-013
 0.910920E-013
 0.910919E-013
 0.910918E-013
 0.910918E-013
 0.910917E-013
 0.910917E-013
 0.910916E-013
 0.910915E-013
 0.910915E-013
 0.910914E-013
 0.910914E-013
 0.910913E-013
 0.910913E-013
 0.910912E-013
 0.910912E-013
 0.910911E-013
 0.910911E-013
 0.910910E-013
 0.910910E-013
 0.910909E-013
 0.910909E-013
 0.910909E-013
 0.910908E-013
 0.910908E-013
 0.910908E-013
 0.910907E-013
 0.910907E-013
 0.910907E-013
 0.910907E-013
 0.910906E-013
 0.910906E-013
 0.910906E-013
 0.910906E-013
 0.910906E-013
 0.910906E-013
 0.910906E-013
 0.910906E-013
 0.910905E-013
 0.910905E-013
 0.910905E-013
 0.910905E-013
 0.910906E-013
 0.910906E-013
 0.910906E-013
 0.910906E-013
 0.910906E-013
 0.910906E-013
 0.910906E-013
 0.910906E-013
 0.910907E-013
 0.910907E-013
 0.910907E-013
 0.910907E-013
 0.910908E-013
 0.910908E-013
 0.910908E-013
 0.910909E-013
 0.910909E-013
 0.910909E-013
 0.910910E-013
 0.910910E-013
 0.910911E-013
 0.910911E-013
 0.910912E-013
 0.910912E-013
 0.910913E-013
 0.910913E-013
 0.910914E-013
 0.910914E-013
 0.910915E-013
 0.910915E-013
 0.910916E-013
 0.910917E-013
 0.910917E-013
 0.910918E-013
 0.910918E-013
 0.910919E-013
 0.910920E-013
 0.910920E-013
 0.910921E-013
 0.910922E-013
 0.910922E-013
 0.910923E-013
 0.910924E-013
 0.910924E-013
 0.910925E-013
 0.910926E-013
 0.910926E-013
 0.910927E-013
 0.910928E-013
 0.910929E-013
 0.910929E-013
 0.910930E-013
 0.910930E-013
 0.910933E-013
 0.910926E-013
 0.910960E-013
 0.910829E-013
 0.911287E-013
 0.909913E-013
 0.913431E-013
 0.905949E-013
 0.918860E-013
 0.919673E-013
 0.905415E-013
 0.913710E-013
 0.909801E-013
 0.911332E-013
 0.910823E-013
 0.910970E-013
 0.910933E-013
 0.910941E-013
 0.910940E-013
 0.910940E-013
 0.910940E-013
 0.910940E-013
 0.910941E-013
 0.910941E-013
 0.910941E-013
 0.910941E-013
 0.910941E-013
 0.910941E-013
 0.910941E-013
 0.910942E-013
 0.910942E-013
 0.910942E-013
 0.910942E-013
 0.910942E-013
 0.910942E-013
 0.910943E-013
 0.910943E-013
 0.910943E-013
 0.910943E-013
 0.910943E-013
 0.910943E-013
 0.910944E-013
 0.910944E-013
 0.910944E-013
 0.910944E-013
 0.910944E-013
 0.910944E-013
 0.910945E-013
 0.910945E-013
 0.910945E-013
 0.910945E-013
 0.910945E-013
 0.910945E-013
 0.910945E-013
 0.910946E-013
 0.910946E-013
 0.910946E-013
 0.910946E-013
 0.910946E-013
 0.910946E-013
 0.910946E-013
 0.910947E-013
 0.910947E-013
 0.910947E-013
 0.910947E-013
 0.910947E-013
 0.910947E-013
 0.910947E-013
 0.910947E-013
 0.910947E-013
 0.910947E-013
 0.910947E-013
 0.910947E-013
 0.910947E-013
 0.910947E-013
 0.910947E-013
 0.910947E-013
 0.910947E-013
 0.910947E-013
 0.910947E-013
 0.910947E-013
 0.910947E-013
 0.910947E-013
 0.910947E-013
 0.910947E-013
 0.910946E-013
 0.910946E-013
 0.910946E-013
 0.910946E-013
 0.910946E-013
 0.910946E-013
 0.910946E-013
 0.910945E-013
 0.910945E-013
 0.910945E-013
 0.910945E-013
 0.910945E-013
 0.910945E-013
 0.910945E-013
 0.910944E-013
 0.910944E-013
 0.910944E-013
 0.910944E-013
 0.910944E-013
 0.910944E-013
 0.910943E-013
 0.910943E-013
 0.910943E-013
 0.910943E-013
 0.910943E-013
 0.910943E-013
 0.910942E-013
 0.910942E-013
 0.910942E-013
 0.910942E-013
 0.910942E-013
 0.910942E-013
 0.910941E-013
 0.910941E-013
 0.910941E-013
 0.910941E-013
 0.910941E-013
 0.910941E-013
 0.910941E-013
 0.910940E-013
 0.910940E-013
 0.910940E-013
 0.910940E-013
 0.910941E-013
 0.910933E-013
 0.910970E-013
 0.910823E-013
 0.911332E-013
 0.909802E-013
 0.913710E-013
 0.905415E-013
 0.919673E-013
 0.920482E-013
 0.904880E-013
 0.913985E-013
 0.909686E-013
 0.911371E-013
 0.910810E-013
 0.910971E-013
 0.910930E-013
 0.910940E-013
 0.910938E-013
 0.910938E-013
 0.910938E-013
 0.910938E-013
 0.910938E-013
 0.910938E-013
 0.910938E-013
 0.910938E-013
 0.910938E-013
 0.910938E-013
 0.910938E-013
 0.910938E-013
 0.910938E-013
 0.910938E-013
 0.910938E-013
 0.910938E-013
 0.910938E-013
 0.910938E-013
 0.910938E-013
 0.910938E-013
 0.910938E-013
 0.910938E-013
 0.910938E-013
 0.910938E-013
 0.910938E-013
 0.910938E-013
 0.910938E-013
 0.910938E-013
 0.910938E-013
 0.910938E-013
 0.910938E-013
 0.910938E-013
 0.910938E-013
 0.910938E-013
 0.910938E-013
 0.910938E-013
 0.910938E-013
 0.910938E-013
 0.910938E-013
 0.910939E-013
 0.910939E-013
 0.910939E-013
 0.910939E-013
 0.910939E-013
 0.910939E-013
 0.910939E-013
 0.910939E-013
 0.910939E-013
 0.910939E-013
 0.910939E-013
 0.910939E-013
 0.910939E-013
 0.910939E-013
 0.910939E-013
 0.910939E-013
 0.910939E-013
 0.910939E-013
 0.910939E-013
 0.910939E-013
 0.910939E-013
 0.910939E-013
 0.910939E-013
 0.910939E-013
 0.910939E-013
 0.910939E-013
 0.910939E-013
 0.910939E-013
 0.910939E-013
 0.910939E-013
 0.910939E-013
 0.910939E-013
 0.910938E-013
 0.910938E-013
 0.910938E-013
 0.910938E-013
 0.910938E-013
 0.910938E-013
 0.910938E-013
 0.910938E-013
 0.910938E-013
 0.910938E-013
 0.910938E-013
 0.910938E-013
 0.910938E-013
 0.910938E-013
 0.910938E-013
 0.910938E-013
 0.910938E-013
 0.910938E-013
 0.910938E-013
 0.910938E-013
 0.910938E-013
 0.910938E-013
 0.910938E-013
 0.910938E-013
 0.910938E-013
 0.910938E-013
 0.910938E-013
 0.910938E-013
 0.910938E-013
 0.910938E-013
 0.910938E-013
 0.910938E-013
 0.910938E-013
 0.910938E-013
 0.910938E-013
 0.910938E-013
 0.910938E-013
 0.910938E-013
 0.910938E-013
 0.910940E-013
 0.910930E-013
 0.910971E-013
 0.910810E-013
 0.911371E-013
 0.909686E-013
 0.913985E-013
 0.904881E-013
 0.920482E-013
 0.921288E-013
 0.904348E-013
 0.914259E-013
 0.909571E-013
 0.911411E-013
 0.910798E-013
 0.910975E-013
 0.910930E-013
 0.910940E-013
 0.910938E-013
 0.910938E-013
 0.910938E-013
 0.910938E-013
 0.910938E-013
 0.910938E-013
 0.910938E-013
 0.910938E-013
 0.910939E-013
 0.910939E-013
 0.910939E-013
 0.910939E-013
 0.910939E-013
 0.910939E-013
 0.910939E-013
 0.910939E-013
 0.910939E-013
 0.910939E-013
 0.910939E-013
 0.910939E-013
 0.910939E-013
 0.910939E-013
 0.910939E-013
 0.910939E-013
 0.910939E-013
 0.910939E-013
 0.910939E-013
 0.910939E-013
 0.910939E-013
 0.910939E-013
 0.910939E-013
 0.910940E-013
 0.910940E-013
 0.910940E-013
 0.910940E-013
 0.910940E-013
 0.910940E-013
 0.910940E-013
 0.910940E-013
 0.910940E-013