# vtk DataFile Version 3.0
Solution data
ASCII
DATASET STRUCTURED_GRID
DIMENSIONS 128 128 1
POINTS 16384  double
      0.000004      0.000004      0.000000
      0.000012      0.000004      0.000000
      0.000020      0.000004      0.000000
      0.000027      0.000004      0.000000
      0.000035      0.000004      0.000000
      0.000043      0.000004      0.000000
      0.000051      0.000004      0.000000
      0.000059      0.000004      0.000000
      0.000066      0.000004      0.000000
      0.000074      0.000004      0.000000
      0.000082      0.000004      0.000000
      0.000090      0.000004      0.000000
      0.000098      0.000004      0.000000
      0.000105      0.000004      0.000000
      0.000113      0.000004      0.000000
      0.000121      0.000004      0.000000
      0.000129      0.000004      0.000000
      0.000137      0.000004      0.000000
      0.000145      0.000004      0.000000
      0.000152      0.000004      0.000000
      0.000160      0.000004      0.000000
      0.000168      0.000004      0.000000
      0.000176      0.000004      0.000000
      0.000184      0.000004      0.000000
      0.000191      0.000004      0.000000
      0.000199      0.000004      0.000000
      0.000207      0.000004      0.000000
      0.000215      0.000004      0.000000
      0.000223      0.000004      0.000000
      0.000230      0.000004      0.000000
      0.000238      0.000004      0.000000
      0.000246      0.000004      0.000000
      0.000254      0.000004      0.000000
      0.000262      0.000004      0.000000
      0.000270      0.000004      0.000000
      0.000277      0.000004      0.000000
      0.000285      0.000004      0.000000
      0.000293      0.000004      0.000000
      0.000301      0.000004      0.000000
      0.000309      0.000004      0.000000
      0.000316      0.000004      0.000000
      0.000324      0.000004      0.000000
      0.000332      0.000004      0.000000
      0.000340      0.000004      0.000000
      0.000348      0.000004      0.000000
      0.000355      0.000004      0.000000
      0.000363      0.000004      0.000000
      0.000371      0.000004      0.000000
      0.000379      0.000004      0.000000
      0.000387      0.000004      0.000000
      0.000395      0.000004      0.000000
      0.000402      0.000004      0.000000
      0.000410      0.000004      0.000000
      0.000418      0.000004      0.000000
      0.000426      0.000004      0.000000
      0.000434      0.000004      0.000000
      0.000441      0.000004      0.000000
      0.000449      0.000004      0.000000
      0.000457      0.000004      0.000000
      0.000465      0.000004      0.000000
      0.000473      0.000004      0.000000
      0.000480      0.000004      0.000000
      0.000488      0.000004      0.000000
      0.000496      0.000004      0.000000
      0.000504      0.000004      0.000000
      0.000512      0.000004      0.000000
      0.000520      0.000004      0.000000
      0.000527      0.000004      0.000000
      0.000535      0.000004      0.000000
      0.000543      0.000004      0.000000
      0.000551      0.000004      0.000000
      0.000559      0.000004      0.000000
      0.000566      0.000004      0.000000
      0.000574      0.000004      0.000000
      0.000582      0.000004      0.000000
      0.000590      0.000004      0.000000
      0.000598      0.000004      0.000000
      0.000605      0.000004      0.000000
      0.000613      0.000004      0.000000
      0.000621      0.000004      0.000000
      0.000629      0.000004      0.000000
      0.000637      0.000004      0.000000
      0.000645      0.000004      0.000000
      0.000652      0.000004      0.000000
      0.000660      0.000004      0.000000
      0.000668      0.000004      0.000000
      0.000676      0.000004      0.000000
      0.000684      0.000004      0.000000
      0.000691      0.000004      0.000000
      0.000699      0.000004      0.000000
      0.000707      0.000004      0.000000
      0.000715      0.000004      0.000000
      0.000723      0.000004      0.000000
      0.000730      0.000004      0.000000
      0.000738      0.000004      0.000000
      0.000746      0.000004      0.000000
      0.000754      0.000004      0.000000
      0.000762      0.000004      0.000000
      0.000770      0.000004      0.000000
      0.000777      0.000004      0.000000
      0.000785      0.000004      0.000000
      0.000793      0.000004      0.000000
      0.000801      0.000004      0.000000
      0.000809      0.000004      0.000000
      0.000816      0.000004      0.000000
      0.000824      0.000004      0.000000
      0.000832      0.000004      0.000000
      0.000840      0.000004      0.000000
      0.000848      0.000004      0.000000
      0.000855      0.000004      0.000000
      0.000863      0.000004      0.000000
      0.000871      0.000004      0.000000
      0.000879      0.000004      0.000000
      0.000887      0.000004      0.000000
      0.000895      0.000004      0.000000
      0.000902      0.000004      0.000000
      0.000910      0.000004      0.000000
      0.000918      0.000004      0.000000
      0.000926      0.000004      0.000000
      0.000934      0.000004      0.000000
      0.000941      0.000004      0.000000
      0.000949      0.000004      0.000000
      0.000957      0.000004      0.000000
      0.000965      0.000004      0.000000
      0.000973      0.000004      0.000000
      0.000980      0.000004      0.000000
      0.000988      0.000004      0.000000
      0.000996      0.000004      0.000000
      0.000004      0.000012      0.000000
      0.000012      0.000012      0.000000
      0.000020      0.000012      0.000000
      0.000027      0.000012      0.000000
      0.000035      0.000012      0.000000
      0.000043      0.000012      0.000000
      0.000051      0.000012      0.000000
      0.000059      0.000012      0.000000
      0.000066      0.000012      0.000000
      0.000074      0.000012      0.000000
      0.000082      0.000012      0.000000
      0.000090      0.000012      0.000000
      0.000098      0.000012      0.000000
      0.000105      0.000012      0.000000
      0.000113      0.000012      0.000000
      0.000121      0.000012      0.000000
      0.000129      0.000012      0.000000
      0.000137      0.000012      0.000000
      0.000145      0.000012      0.000000
      0.000152      0.000012      0.000000
      0.000160      0.000012      0.000000
      0.000168      0.000012      0.000000
      0.000176      0.000012      0.000000
      0.000184      0.000012      0.000000
      0.000191      0.000012      0.000000
      0.000199      0.000012      0.000000
      0.000207      0.000012      0.000000
      0.000215      0.000012      0.000000
      0.000223      0.000012      0.000000
      0.000230      0.000012      0.000000
      0.000238      0.000012      0.000000
      0.000246      0.000012      0.000000
      0.000254      0.000012      0.000000
      0.000262      0.000012      0.000000
      0.000270      0.000012      0.000000
      0.000277      0.000012      0.000000
      0.000285      0.000012      0.000000
      0.000293      0.000012      0.000000
      0.000301      0.000012      0.000000
      0.000309      0.000012      0.000000
      0.000316      0.000012      0.000000
      0.000324      0.000012      0.000000
      0.000332      0.000012      0.000000
      0.000340      0.000012      0.000000
      0.000348      0.000012      0.000000
      0.000355      0.000012      0.000000
      0.000363      0.000012      0.000000
      0.000371      0.000012      0.000000
      0.000379      0.000012      0.000000
      0.000387      0.000012      0.000000
      0.000395      0.000012      0.000000
      0.000402      0.000012      0.000000
      0.000410      0.000012      0.000000
      0.000418      0.000012      0.000000
      0.000426      0.000012      0.000000
      0.000434      0.000012      0.000000
      0.000441      0.000012      0.000000
      0.000449      0.000012      0.000000
      0.000457      0.000012      0.000000
      0.000465      0.000012      0.000000
      0.000473      0.000012      0.000000
      0.000480      0.000012      0.000000
      0.000488      0.000012      0.000000
      0.000496      0.000012      0.000000
      0.000504      0.000012      0.000000
      0.000512      0.000012      0.000000
      0.000520      0.000012      0.000000
      0.000527      0.000012      0.000000
      0.000535      0.000012      0.000000
      0.000543      0.000012      0.000000
      0.000551      0.000012      0.000000
      0.000559      0.000012      0.000000
      0.000566      0.000012      0.000000
      0.000574      0.000012      0.000000
      0.000582      0.000012      0.000000
      0.000590      0.000012      0.000000
      0.000598      0.000012      0.000000
      0.000605      0.000012      0.000000
      0.000613      0.000012      0.000000
      0.000621      0.000012      0.000000
      0.000629      0.000012      0.000000
      0.000637      0.000012      0.000000
      0.000645      0.000012      0.000000
      0.000652      0.000012      0.000000
      0.000660      0.000012      0.000000
      0.000668      0.000012      0.000000
      0.000676      0.000012      0.000000
      0.000684      0.000012      0.000000
      0.000691      0.000012      0.000000
      0.000699      0.000012      0.000000
      0.000707      0.000012      0.000000
      0.000715      0.000012      0.000000
      0.000723      0.000012      0.000000
      0.000730      0.000012      0.000000
      0.000738      0.000012      0.000000
      0.000746      0.000012      0.000000
      0.000754      0.000012      0.000000
      0.000762      0.000012      0.000000
      0.000770      0.000012      0.000000
      0.000777      0.000012      0.000000
      0.000785      0.000012      0.000000
[...]
POINT_DATA 16384
SCALARS rhoe double
LOOKUP_TABLE default
 0.915431E-013
 0.913061E-013
 0.915154E-013
 0.915891E-013
 0.916956E-013
 0.917952E-013
 0.918957E-013
 0.919957E-013
 0.920956E-013
 0.921951E-013
 0.922944E-013
 0.923934E-013
 0.924921E-013
 0.925904E-013
 0.926884E-013
 0.927860E-013
 0.928833E-013
 0.929801E-013
 0.930765E-013
 0.931724E-013
 0.932677E-013
 0.933625E-013
 0.934567E-013
 0.935503E-013
 0.936431E-013
 0.937352E-013
 0.938265E-013
 0.939170E-013
 0.940064E-013
 0.940949E-013
 0.941823E-013
 0.942686E-013
 0.943536E-013
 0.944373E-013
 0.945196E-013
 0.946005E-013
 0.946797E-013
 0.947573E-013
 0.948332E-013
 0.949072E-013
 0.949792E-013
 0.950492E-013
 0.951171E-013
 0.951827E-013
 0.952460E-013
 0.953068E-013
 0.953651E-013
 0.954208E-013
 0.954738E-013
 0.955239E-013
 0.955711E-013
 0.956154E-013
 0.956566E-013
 0.956946E-013
 0.957294E-013
 0.957610E-013
 0.957892E-013
 0.958140E-013
 0.958353E-013
 0.958532E-013
 0.958675E-013
 0.958783E-013
 0.958854E-013
 0.958890E-013
 0.958890E-013
 0.958854E-013
 0.958782E-013
 0.958675E-013
 0.958531E-013
 0.958353E-013
 0.958139E-013
 0.957891E-013
 0.957609E-013
 0.957294E-013
 0.956946E-013
 0.956565E-013
 0.956154E-013
 0.955711E-013
 0.955239E-013
 0.954737E-013
 0.954208E-013
 0.953651E-013
 0.953068E-013
 0.952459E-013
 0.951827E-013
 0.951170E-013
 0.950492E-013
 0.949792E-013
 0.949071E-013
 0.948331E-013
 0.947573E-013
 0.946796E-013
 0.946004E-013
 0.945195E-013
 0.944372E-013
 0.943535E-013
 0.942685E-013
 0.941822E-013
 0.940948E-013
 0.940064E-013
 0.939169E-013
 0.938265E-013
 0.937352E-013
 0.936431E-013
 0.935502E-013
 0.934567E-013
 0.933625E-013
 0.932676E-013
 0.931723E-013
 0.930764E-013
 0.929800E-013
 0.928832E-013
 0.927860E-013
 0.926883E-013
 0.925903E-013
 0.924920E-013
 0.923933E-013
 0.922943E-013
 0.921951E-013
 0.920955E-013
 0.919957E-013
 0.918956E-013
 0.917951E-013
 0.916956E-013
 0.915890E-013
 0.915154E-013
 0.913061E-013
 0.915430E-013
 0.913061E-013
 0.908646E-013
 0.909671E-013
 0.908831E-013
 0.908485E-013
 0.908035E-013
 0.907605E-013
 0.907173E-013
 0.906743E-013
 0.906314E-013
 0.905887E-013
 0.905460E-013
 0.905035E-013
 0.904612E-013
 0.904190E-013
 0.903770E-013
 0.903352E-013
 0.902936E-013
 0.902521E-013
 0.902109E-013
 0.901699E-013
 0.901292E-013
 0.900887E-013
 0.900485E-013
 0.900086E-013
 0.899690E-013
 0.899298E-013
 0.898910E-013
 0.898526E-013
 0.898146E-013
 0.897771E-013
 0.897401E-013
 0.897036E-013
 0.896677E-013
 0.896323E-013
 0.895977E-013
 0.895637E-013
 0.895304E-013
 0.894979E-013
 0.894661E-013
 0.894353E-013
 0.894052E-013
 0.893762E-013
 0.893480E-013
 0.893209E-013
 0.892949E-013
 0.892699E-013
 0.892460E-013
 0.892233E-013
 0.892019E-013
 0.891816E-013
 0.891627E-013
 0.891450E-013
 0.891288E-013
 0.891138E-013
 0.891003E-013
 0.890883E-013
 0.890777E-013
 0.890685E-013
 0.890609E-013
 0.890547E-013
 0.890501E-013
 0.890471E-013
 0.890455E-013
 0.890455E-013
 0.890471E-013
 0.890502E-013
 0.890548E-013
 0.890609E-013
 0.890685E-013
 0.890777E-013
 0.890883E-013
 0.891004E-013
 0.891139E-013
 0.891288E-013
 0.891451E-013
 0.891627E-013
 0.891817E-013
 0.892019E-013
 0.892234E-013
 0.892461E-013
 0.892699E-013
 0.892949E-013
 0.893210E-013
 0.893481E-013
 0.893762E-013
 0.894053E-013
 0.894353E-013
 0.894662E-013
 0.894980E-013
 0.895305E-013
 0.895638E-013
 0.895978E-013
 0.896324E-013
 0.896678E-013
 0.897037E-013
 0.897402E-013
 0.897772E-013
 0.898147E-013
 0.898527E-013
 0.898911E-013
 0.899299E-013
 0.899691E-013
 0.900087E-013
 0.900486E-013
 0.900888E-013
 0.901292E-013
 0.901700E-013
 0.902110E-013
 0.902522E-013
 0.902937E-013
 0.903353E-013
 0.903771E-013
 0.904191E-013
 0.904613E-013
 0.905036E-013
 0.905461E-013
 0.905887E-013
 0.906315E-013
 0.906744E-013
 0.907174E-013
 0.907605E-013
 0.908035E-013
 0.908485E-013
 0.908831E-013
 0.909672E-013
 0.908646E-013
 0.913061E-013
 0.915154E-013
 0.909671E-013
 0.911874E-013
 0.911432E-013
 0.911692E-013
 0.911801E-013
 0.911937E-013
 0.912069E-013
 0.912200E-013
 0.912331E-013
 0.912462E-013
 0.912592E-013
 0.912722E-013
 0.912851E-013
 0.912980E-013
 0.913108E-013
 0.913236E-013
 0.913363E-013
 0.913489E-013
 0.913615E-013
 0.913740E-013
 0.913865E-013
 0.913988E-013
 0.914111E-013
 0.914233E-013
 0.914353E-013
 0.914473E-013
 0.914591E-013
 0.914709E-013
 0.914824E-013
 0.914939E-013
 0.915052E-013
 0.915163E-013
 0.915273E-013
 0.915380E-013
 0.915486E-013
 0.915590E-013
 0.915691E-013
 0.915791E-013
 0.915887E-013
 0.915982E-013
 0.916073E-013
 0.916162E-013
 0.916248E-013
 0.916330E-013
 0.916410E-013
 0.916486E-013
 0.916559E-013
 0.916628E-013
 0.916694E-013
 0.916755E-013
 0.916813E-013
 0.916867E-013
 0.916917E-013
 0.916962E-013
 0.917003E-013
 0.917040E-013
 0.917073E-013
 0.917100E-013
 0.917124E-013
 0.917142E-013
 0.917157E-013
 0.917166E-013
 0.917171E-013
 0.917171E-013
 0.917166E-013
 0.917156E-013
 0.917142E-013
 0.917124E-013
 0.917100E-013
 0.917072E-013
 0.917040E-013
 0.917003E-013
 0.916962E-013
 0.916917E-013
 0.916867E-013
 0.916813E-013
 0.916755E-013
 0.916693E-013
 0.916628E-013
 0.916559E-013
 0.916486E-013
 0.916410E-013
 0.916330E-013
 0.916247E-013
 0.916162E-013
 0.916073E-013
 0.915981E-013
 0.915887E-013
 0.915790E-013
 0.915691E-013
 0.915590E-013
 0.915486E-013
 0.915380E-013
 0.915272E-013
 0.915163E-013
 0.915052E-013
 0.914939E-013
 0.914824E-013
 0.914708E-013
 0.914591E-013
 0.914473E-013
 0.914353E-013
 0.914232E-013
 0.914111E-013
 0.913988E-013
 0.913864E-013
 0.913740E-013
 0.913615E-013
 0.913489E-013
 0.913362E-013
 0.913235E-013
 0.913108E-013
 0.912979E-013
 0.912851E-013
 0.912721E-013
 0.912592E-013
 0.912462E-013
 0.912331E-013
 0.912200E-013
 0.912068E-013
 0.911937E-013
 0.911801E-013
 0.911692E-013
 0.911432E-013
 0.911874E-013
 0.909672E-013
 0.915154E-013
 0.915891E-013
 0.908831E-013
 0.911432E-013
 0.910662E-013
 0.910795E-013
 0.910733E-013
 0.910707E-013
 0.910675E-013
 0.910645E-013
 0.910614E-013
 0.910583E-013
 0.910552E-013
 0.910522E-013
 0.910492E-013
 0.910461E-013
 0.910431E-013
 0.910401E-013
 0.910372E-013
 0.910342E-013
 0.910312E-013
 0.910283E-013
 0.910254E-013
 0.910225E-013
 0.910196E-013
 0.910168E-013
 0.910139E-013
 0.910111E-013
 0.910084E-013
 0.910056E-013
 0.910029E-013
 0.910002E-013
 0.909976E-013
 0.909950E-013
 0.909924E-013
 0.909899E-013
 0.909875E-013
 0.909850E-013
 0.909827E-013
 0.909804E-013
 0.909781E-013
 0.909759E-013
 0.909738E-013
 0.909717E-013
 0.909697E-013
 0.909678E-013
 0.909659E-013
 0.909642E-013
 0.909625E-013
 0.909609E-013
 0.909594E-013
 0.909579E-013
 0.909566E-013
 0.909553E-013
 0.909542E-013
 0.909531E-013
 0.909522E-013
 0.909513E-013
 0.909506E-013
 0.909499E-013
 0.909494E-013
 0.909489E-013
 0.909486E-013
 0.909484E-013
 0.909483E-013
 0.909483E-013
 0.909484E-013
 0.909486E-013
 0.909489E-013
 0.909494E-013
 0.909499E-013
 0.909506E-013
 0.909513E-013
 0.909522E-013
 0.909531E-013
 0.909542E-013
 0.909553E-013
 0.909566E-013
 0.909579E-013
 0.909594E-013
 0.909609E-013
 0.909625E-013
 0.909642E-013
 0.909660E-013
 0.909678E-013
 0.909697E-013
 0.909717E-013
 0.909738E-013
 0.909759E-013
 0.909781E-013
 0.909804E-013
 0.909827E-013
 0.909851E-013
 0.909875E-013
 0.909899E-013
 0.909925E-013
 0.909950E-013
 0.909976E-013
 0.910003E-013
 0.910029E-013
 0.910056E-013
 0.910084E-013
 0.910112E-013
 0.910140E-013
 0.910168E-013
 0.910196E-013
 0.910225E-013
 0.910254E-013
 0.910283E-013
 0.910312E-013
 0.910342E-013
 0.910372E-013
 0.910401E-013
 0.910431E-013
 0.910461E-013
 0.910492E-013
 0.910522E-013
 0.910553E-013
 0.910583E-013
 0.910614E-013
 0.910645E-013
 0.910675E-013
 0.910707E-013
 0.910733E-013
 0.910795E-013
 0.910662E-013
 0.911432E-013
 0.908831E-013
 0.915890E-013
 0.916956E-013
 0.908485E-013
 0.911692E-013
 0.910795E-013
 0.911002E-013
 0.910971E-013
 0.910983E-013
 0.910988E-013
 0.910994E-013
 0.911000E-013
 0.911006E-013
 0.911011E-013
 0.911017E-013
 0.911023E-013
 0.911029E-013
 0.911035E-013
 0.911040E-013
 0.911046E-013
 0.911052E-013
 0.911057E-013
 0.911063E-013
 0.911068E-013
 0.911074E-013
 0.911079E-013
 0.911085E-013
 0.911090E-013
 0.911096E-013
 0.911101E-013
 0.911106E-013
 0.911111E-013
 0.911116E-013
 0.911122E-013
 0.911127E-013
 0.911131E-013
 0.911136E-013
 0.911141E-013
 0.911146E-013
 0.911150E-013
 0.911155E-013
 0.911159E-013
 0.911163E-013
 0.911167E-013
 0.911171E-013
 0.911175E-013
 0.911179E-013
 0.911183E-013
 0.911186E-013
 0.911189E-013
 0.911193E-013
 0.911196E-013
 0.911198E-013
 0.911201E-013
 0.911203E-013
 0.911206E-013
 0.911208E-013
 0.911210E-013
 0.911211E-013
 0.911213E-013
 0.911214E-013
 0.911215E-013
 0.911216E-013
 0.911217E-013
 0.911217E-013
 0.911217E-013
 0.911217E-013
 0.911217E-013
 0.911217E-013
 0.911216E-013
 0.911215E-013
 0.911214E-013
 0.911213E-013
 0.911211E-013
 0.911210E-013
 0.911208E-013
 0.911206E-013
 0.911203E-013
 0.911201E-013
 0.911198E-013
 0.911196E-013
 0.911193E-013
 0.911189E-013
 0.911186E-013
 0.911183E-013
 0.911179E-013
 0.911175E-013
 0.911171E-013
 0.911167E-013
 0.911163E-013
 0.911159E-013
 0.911155E-013
 0.911150E-013
 0.911146E-013
 0.911141E-013
 0.911136E-013
 0.911131E-013
 0.911127E-013
 0.911122E-013
 0.911116E-013
 0.911111E-013
 0.911106E-013
 0.911101E-013
 0.911096E-013
 0.911090E-013
 0.911085E-013
 0.911079E-013
 0.911074E-013
 0.911068E-013
 0.911063E-013
 0.911057E-013
 0.911052E-013
 0.911046E-013
 0.911040E-013
 0.911035E-013
 0.911029E-013
 0.911023E-013
 0.911017E-013
 0.911011E-013
 0.911006E-013
 0.911000E-013
 0.910994E-013
 0.910988E-013
 0.910983E-013
 0.910971E-013
 0.911002E-013
 0.910795E-013
 0.911692E-013
 0.908485E-013
 0.916956E-013
 0.917952E-013
 0.908035E-013
 0.911801E-013
 0.910733E-013
 0.910971E-013
 0.910926E-013
 0.910932E-013
 0.910930E-013
 0.910929E-013
 0.910928E-013
 0.910928E-013
 0.910927E-013
 0.910926E-013
 0.910925E-013
 0.910924E-013
 0.910923E-013
 0.910922E-013
 0.910921E-013
 0.910920E-013
 0.910919E-013
 0.910918E-013
 0.910918E-013
 0.910917E-013
 0.910916E-013
 0.910915E-013
 0.910914E-013
 0.910913E-013
 0.910913E-013
 0.910912E-013
 0.910911E-013
 0.910910E-013
 0.910909E-013
 0.910909E-013
 0.910908E-013
 0.910907E-013
 0.910907E-013
 0.910906E-013
 0.910905E-013
 0.910905E-013
 0.910904E-013
 0.910903E-013
 0.910903E-013
 0.910902E-013
 0.910902E-013
 0.910901E-013
 0.910901E-013
 0.910900E-013
 0.910900E-013
 0.910900E-013
 0.910899E-013
 0.910899E-013
 0.910899E-013
 0.910898E-013
 0.910898E-013
 0.910898E-013
 0.910898E-013
 0.910897E-013
 0.910897E-013
 0.910897E-013
 0.910897E-013
 0.910897E-013
 0.910897E-013
 0.910897E-013
 0.910897E-013
 0.910897E-013
 0.910897E-013
 0.910897E-013
 0.910897E-013
 0.910897E-013
 0.910897E-013
 0.910897E-013
 0.910897E-013
 0.910898E-013
 0.910898E-013
 0.910898E-013
 0.910898E-013
 0.910899E-013
 0.910899E-013
 0.910899E-013
 0.910900E-013
 0.910900E-013
 0.910900E-013
 0.910901E-013
 0.910901E-013
 0.910902E-013
 0.910902E-013
 0.910903E-013
 0.910903E-013
 0.910904E-013
 0.910905E-013
 0.910905E-013
 0.910906E-013
 0.910907E-013
 0.910907E-013
 0.910908E-013
 0.910909E-013
 0.910909E-013
 0.910910E-013
 0.910911E-013
 0.910912E-013
 0.910913E-013
 0.910913E-013
 0.910914E-013
 0.910915E-013
 0.910916E-013
 0.910917E-013
 0.910918E-013
 0.910918E-013
 0.910919E-013
 0.910920E-013
 0.910921E-013
 0.910922E-013
 0.910923E-013
 0.910924E-013
 0.910925E-013
 0.910926E-013
 0.910927E-013
 0.910928E-013
 0.910928E-013
 0.910929E-013
 0.910930E-013
 0.910932E-013
 0.910926E-013
 0.910971E-013
 0.910733E-013
 0.911801E-013
 0.908035E-013
 0.917951E-013
 0.918957E-013
 0.907605E-013
 0.911937E-013
 0.910707E-013
 0.910983E-013
 0.910932E-013
 0.910940E-013
 0.910939E-013
 0.910939E-013
 0.910940E-013
 0.910940E-013
 0.910940E-013
 0.910940E-013
 0.910940E-013
 0.910940E-013
 0.910940E-013
 0.910941E-013
 0.910941E-013
 0.910941E-013
 0.910941E-013
 0.910941E-013
 0.910941E-013
 0.910941E-013
 0.910941E-013
 0.910942E-013
 0.910942E-013
 0.910942E-013
 0.910942E-013
 0.910942E-013
 0.910942E-013
 0.910943E-013
 0.910943E-013
 0.910943E-013
 0.910943E-013
 0.910943E-013
 0.910943E-013
 0.910944E-013
 0.910944E-013
 0.910944E-013
 0.910944E-013
 0.910944E-013
 0.910945E-013
 0.910945E-013
 0.910945E-013
 0.910945E-013
 0.910945E-013
 0.910946E-013
 0.910946E-013
 0.910946E-013
 0.910946E-013
 0.910946E-013
 0.910946E-013
 0.910947E-013
 0.910947E-013
 0.910947E-013
 0.910947E-013
 0.910947E-013
 0.910947E-013
 0.910947E-013
 0.910947E-013
 0.910947E-013
 0.910948E-013
 0.910948E-013
 0.910948E-013
 0.910948E-013
 0.910948E-013
 0.910948E-013
 0.910947E-013
 0.910947E-013
 0.910947E-013
 0.910947E-013
 0.910947E-013
 0.910947E-013
 0.910947E-013
 0.910947E-013
 0.910947E-013
 0.910946E-013
 0.910946E-013
 0.910946E-013
 0.910946E-013
 0.910946E-013
 0.910946E-013
 0.910945E-013
 0.910945E-013
 0.910945E-013
 0.910945E-013
 0.910945E-013
 0.910944E-013
 0.910944E-013
 0.910944E-013
 0.910944E-013
 0.910944E-013
 0.910944E-013
 0.910943E-013
 0.910943E-013
 0.910943E-013
 0.910943E-013
 0.910943E-013
 0.910942E-013
 0.910942E-013
 0.910942E-013
 0.910942E-013
 0.910942E-013
 0.910942E-013
 0.910942E-013
 0.910941E-013
 0.910941E-013
 0.910941E-013
 0.910941E-013
 0.910941E-013
 0.910941E-013
 0.910941E-013
 0.910940E-013
 0.910940E-013
 0.910940E-013
 0.910940E-013
 0.910940E-013
 0.910940E-013
 0.910940E-013
 0.910940E-013
 0.910939E-013
 0.910940E-013
 0.910932E-013
 0.910983E-013
 0.910707E-013
 0.911937E-013
 0.907605E-013
 0.918956E-013
 0.919957E-013
 0.907173E-013
 0.912069E-013
 0.910675E-013
 0.910988E-013
 0.910930E-013
 0.910939E-013
 0.910938E-013
 0.910938E-013
 0.910938E-013
 0.910938E-013
 0.910938E-013
 0.910938E-013
 0.910938E-013
 0.910938E-013
 0.910938E-013
 0.910938E-013
 0.910938E-013
 0.910938E-013
 0.910938E-013
 0.910938E-013
 0.910938E-013
 0.910938E-013
 0.910938E-013
 0.910938E-013
 0.910938E-013
 0.910938E-013
 0.910938E-013
 0.910938E-013
 0.910938E-013
 0.910938E-013
 0.910938E-013
 0.910938E-013
 0.910938E-013
 0.910939E-013
 0.910939E-013
 0.910939E-013
 0.910939E-013
 0.910939E-013
 0.910939E-013
 0.910939E-013
 0.910939E-013
 0.910939E-013
 0.910939E-013
 0.910940E-013
 0.910940E-013
 0.910940E-013
 0.910940E-013
 0.910940E-013
 0.910940E-013
 0.910940E-013
 0.910940E-013
 0.910941E-013
 0.910941E-013
 0.910941E-013
 0.910941E-013
 0.910941E-013
 0.910941E-013
 0.910941E-013
 0.910941E-013
 0.910941E-013
 0.910941E-013
 0.910941E-013
 0.910941E-013
 0.910941E-013
 0.910941E-013
 0.910941E-013
 0.910941E-013
 0.910941E-013
 0.910941E-013
 0.910941E-013
 0.910941E-013
 0.910941E-013
 0.910941E-013
 0.910941E-013
 0.910941E-013
 0.910941E-013
 0.910940E-013
 0.910940E-013
 0.910940E-013
 0.910940E-013
 0.910940E-013
 0.910940E-013
 0.910940E-013
 0.910940E-013
 0.910939E-013
 0.910939E-013
 0.910939E-013
 0.910939E-013
 0.910939E-013
 0.910939E-013
 0.910939E-013
 0.910939E-013
 0.910939E-013
 0.910939E-013
 0.910938E-013
 0.910938E-013
 0.910938E-013
 0.910938E-013
 0.910938E-013
 0.910938E-013
 0.910938E-013
 0.910938E-013
 0.910938E-013
 0.910938E-013
 0.910938E-013
 0.910938E-013
 0.910938E-013
 0.910938E-013
 0.910938E-013
 0.910938E-013
 0.910938E-013
 0.910938E-013
 0.910938E-013
 0.910938E-013
 0.910938E-013
 0.910938E-013
 0.910938E-013
 0.910938E-013
 0.910938E-013
 0.910938E-013
 0.910939E-013
 0.910930E-013
 0.910988E-013
 0.910675E-013
 0.912068E-013
 0.907174E-013
 0.919957E-013
 0.920956E-013
 0.906743E-013
 0.912200E-013
 0.910645E-013
 0.910994E-013
 0.910929E-013
 0.910939E-013
 0.910938E-013
 0.910938E-013
 0.910938E-013
 0.910938E-013
 0.910938E-013
 0.910938E-013
 0.910938E-013
 0.910938E-013
 0.910938E-013
 0.910938E-013
 0.910938E-013
 0.910938E-013
 0.910938E-013
 0.910938E-013
 0.910938E-013
 0.910938E-013
 0.910938E-013
 0.910939E-013
 0.910939E-013
 0.910939E-013
 0.910939E-013
 0.910939E-013
 0.910939E-013
 0.910939E-013
 0.910939E-013
 0.910939E-013
 0.910939E-013
 0.910939E-013
 0.910939E-013
 0.910940E-013
 0.910940E-013
 0.910940E-013
 0.910940E-013
 0.910940E-013
 0.910940E-013
 0.910940E-013
 0.910941E-013
 0.910941E-013
 0.910941E-013
 0.910941E-013
 0.910941E-013
 0.910941E-013
 0.910942E-013
 0.910942E-013
 0.910942E-013
 0.910942E-013
 0.910942E-013
 0.910942E-013
 0.910942E-013
 0.910942E-013
 0.910943E-013
 0.910943E-013
 0.910943E-013
 0.910943E-013
 0.910943E-013
 0.910943E-013
 0.910943E-013
 0.910943E-013
 0.910943E-013
 0.910943E-013
 0.910943E-013
 0.910943E-013
 0.910943E-013
 0.910943E-013
 0.910943E-013
 0.910942E-013
 0.910942E-013
 0.910942E-013
 0.910942E-013
 0.910942E-013
 0.910942E-013
 0.910942E-013
 0.910941E-013
 0.910941E-013
 0.910941E-013
 0.910941E-013
 0.910941E-013
 0.910941E-013
 0.910940E-013
 0.910940E-013
 0.910940E-013
 0.910940E-013
 0.910940E-013
 0.910940E-013
 0.910940E-013
 0.910939E-013
 0.910939E-013
 0.910939E-013
 0.910939E-013
 0.910939E-013
 0.910939E-013
 0.910939E-013
 0.910939E-013
 0.910939E-013
 0.910939E-013
 0.910939E-013
 0.910939E-013
 0.910939E-013
 0.910938E-013
 0.910938E-013
 0.910938E-013
 0.910938E-013
 0.910938E-013
 0.910938E-013
 0.910938E-013
 0.910938E-013
 0.910938E-013
 0.910938E-013
 0.910938E-013
 0.910938E-013
 0.910938E-013
 0.910938E-013
 0.910938E-013
 0.910938E-013
 0.910940E-013
 0.910929E-013
 0.910994E-013
 0.910645E-013
 0.912200E-013
 0.906744E-013
 0.920955E-013
 0.921951E-013
 0.906314E-013
 0.912331E-013
 0.910614E-013
 0.911000E-013
 0.910928E-013
 0.910940E-013
 0.910938E-013
 0.910938E-013
 0.910938E-013
 0.910938E-013
 0.910938E-013
 0.910938E-013
 0.910938E-013
 0.910938E-013
 0.910938E-013
 0.910938E-013
 0.910938E-013
 0.910938E-013
 0.910938E-013
 0.910938E-013
 0.910938E-013
 0.910938E-013
 0.910938E-013
 0.910939E-013
 0.910939E-013
 0.910939E-013
 0.910939E-013
 0.910939E-013
 0.910939E-013
 0.910939E-013
 0.910939E-013
 0.910939E-013
 0.910939E-013
 0.910939E-013
 0.910940E-013
 0.910940E-013
 0.910940E-013
 0.910940E-013
 0.910940E-013
 0.910940E-013
 0.910941E-013
 0.910941E-013
 0.910941E-013
 0.910941E-013
 0.910941E-013
 0.910941E-013
 0.910942E-013
 0.910942E-013
 0.910942E-013
 0.910942E-013
 0.910942E-013
 0.910943E-013
 0.910943E-013
 0.910943E-013
 0.910943E-013
 0.910943E-013
 0.910943E-013
 0.910943E-013
 0.910944E-013
 0.910944E-013
 0.910944E-013
 0.910944E-013
 0.910944E-013
 0.910944E-013
 0.910944E-013
 0.910944E-013
 0.910944E-013
 0.910944E-013
 0.910943E-013
 0.910943E-013
 0.910943E-013
 0.910943E-013
 0.910943E-013
 0.910943E-013
 0.910943E-013
 0.910942E-013
 0.910942E-013
 0.910942E-013
 0.910942E-013
 0.910942E-013
 0.910942E-013
 0.910941E-013
 0.910941E-013
 0.910941E-013
 0.910941E-013
 0.910941E-013
 0.910940E-013
 0.910940E-013
 0.910940E-013
 0.910940E-013
 0.910940E-013
 0.910940E-013
 0.910939E-013
 0.910939E-013
 0.910939E-013
 0.910939E-013
 0.910939E-013
 0.910939E-013
 0.910939E-013
 0.910939E-013
 0.910939E-013
 0.910939E-013
 0.910939E-013
 0.910939E-013
 0.910939E-013
 0.910938E-013
 0.910938E-013
 0.910938E-013
 0.910938E-013
 0.910938E-013
 0.910938E-013
 0.910938E-013
 0.910938E-013
 0.910938E-013
 0.910938E-013
 0.910938E-013
 0.910938E-013
 0.910938E-013
 0.910938E-013
 0.910938E-013
 0.910940E-013
 0.910929E-013
 0.911000E-013
 0.910614E-013
 0.912331E-013
 0.906315E-013
 0.921951E-013
 0.922944E-013
 0.905887E-013
 0.912462E-013
 0.910583E-013
 0.911006E-013
 0.910928E-013
 0.910940E-013
 0.910938E-013
 0.910938E-013
 0.910938E-013
 0.910938E-013
 0.910938E-013
 0.910938E-013
 0.910938E-013
 0.910938E-013
 0.910938E-013
 0.910938E-013
 0.910938E-013
 0.910938E-013
 0.910938E-013
 0.910938E-013
 0.910938E-013
 0.910939E-013
 0.910939E-013
 0.910939E-013
 0.910939E-013
 0.910939E-013
 0.910939E-013
 0.910939E-013
 0.910939E-013
 0.910939E-013
 0.910939E-013
 0.910939E-013
 0.910940E-013
 0.910940E-013
 0.910940E-013
 0.910940E-013
 0.910940E-013
 0.910940E-013
 0.910941E-013
 0.910941E-013
 0.910941E-013
 0.910941E-013
 0.910941E-013
 0.910942E-013
 0.910942E-013
 0.910942E-013
 0.910942E-013
 0.910943E-013