# vtk DataFile Version 3.0
Solution data
ASCII
DATASET STRUCTURED_GRID
DIMENSIONS 128 128 1
POINTS 16384  double
      0.000004      0.000004      0.000000
      0.000012      0.000004      0.000000
      0.000020      0.000004      0.000000
      0.000027      0.000004      0.000000
      0.000035      0.000004      0.000000
      0.000043      0.000004      0.000000
      0.000051      0.000004      0.000000
      0.000059      0.000004      0.000000
      0.000066      0.000004      0.000000
      0.000074      0.000004      0.000000
      0.000082      0.000004      0.000000
      0.000090      0.000004      0.000000
      0.000098      0.000004      0.000000
      0.000105      0.000004      0.000000
      0.000113      0.000004      0.000000
      0.000121      0.000004      0.000000
      0.000129      0.000004      0.000000
      0.000137      0.000004      0.000000
      0.000145      0.000004      0.000000
      0.000152      0.000004      0.000000
      0.000160      0.000004      0.000000
      0.000168      0.000004      0.000000
      0.000176      0.000004      0.000000
      0.000184      0.000004      0.000000
      0.000191      0.000004      0.000000
      0.000199      0.000004      0.000000
      0.000207      0.000004      0.000000
      0.000215      0.000004      0.000000
      0.000223      0.000004      0.000000
      0.000230      0.000004      0.000000
      0.000238      0.000004      0.000000
      0.000246      0.000004      0.000000
      0.000254      0.000004      0.000000
      0.000262      0.000004      0.000000
      0.000270      0.000004      0.000000
      0.000277      0.000004      0.000000
      0.000285      0.000004      0.000000
      0.000293      0.000004      0.000000
      0.000301      0.000004      0.000000
      0.000309      0.000004      0.000000
      0.000316      0.000004      0.000000
      0.000324      0.000004      0.000000
      0.000332      0.000004      0.000000
      0.000340      0.000004      0.000000
      0.000348      0.000004      0.000000
      0.000355      0.000004      0.000000
      0.000363      0.000004      0.000000
      0.000371      0.000004      0.000000
      0.000379      0.000004      0.000000
      0.000387      0.000004      0.000000
      0.000395      0.000004      0.000000
      0.000402      0.000004      0.000000
      0.000410      0.000004      0.000000
      0.000418      0.000004      0.000000
      0.000426      0.000004      0.000000
      0.000434      0.000004      0.000000
      0.000441      0.000004      0.000000
      0.000449      0.000004      0.000000
      0.000457      0.000004      0.000000
      0.000465      0.000004      0.000000
      0.000473      0.000004      0.000000
      0.000480      0.000004      0.000000
      0.000488      0.000004      0.000000
      0.000496      0.000004      0.000000
      0.000504      0.000004      0.000000
      0.000512      0.000004      0.000000
      0.000520      0.000004      0.000000
      0.000527      0.000004      0.000000
      0.000535      0.000004      0.000000
      0.000543      0.000004      0.000000
      0.000551      0.000004      0.000000
      0.000559      0.000004      0.000000
      0.000566      0.000004      0.000000
      0.000574      0.000004      0.000000
      0.000582      0.000004      0.000000
      0.000590      0.000004      0.000000
      0.000598      0.000004      0.000000
      0.000605      0.000004      0.000000
      0.000613      0.000004      0.000000
      0.000621      0.000004      0.000000
      0.000629      0.000004      0.000000
      0.000637      0.000004      0.000000
      0.000645      0.000004      0.000000
      0.000652      0.000004      0.000000
      0.000660      0.000004      0.000000
      0.000668      0.000004      0.000000
      0.000676      0.000004      0.000000
      0.000684      0.000004      0.000000
      0.000691      0.000004      0.000000
      0.000699      0.000004      0.000000
      0.000707      0.000004      0.000000
      0.000715      0.000004      0.000000
      0.000723      0.000004      0.000000
      0.000730      0.000004      0.000000
      0.000738      0.000004      0.000000
      0.000746      0.000004      0.000000
      0.000754      0.000004      0.000000
      0.000762      0.000004      0.000000
      0.000770      0.000004      0.000000
      0.000777      0.000004      0.000000
      0.000785      0.000004      0.000000
      0.000793      0.000004      0.000000
      0.000801      0.000004      0.000000
      0.000809      0.000004      0.000000
      0.000816      0.000004      0.000000
      0.000824      0.000004      0.000000
      0.000832      0.000004      0.000000
      0.000840      0.000004      0.000000
      0.000848      0.000004      0.000000
      0.000855      0.000004      0.000000
      0.000863      0.000004      0.000000
      0.000871      0.000004      0.000000
      0.000879      0.000004      0.000000
      0.000887      0.000004      0.000000
      0.000895      0.000004      0.000000
      0.000902      0.000004      0.000000
      0.000910      0.000004      0.000000
      0.000918      0.000004      0.000000
      0.000926      0.000004      0.000000
      0.000934      0.000004      0.000000
      0.000941      0.000004      0.000000
      0.000949      0.000004      0.000000
      0.000957      0.000004      0.000000
      0.000965      0.000004      0.000000
      0.000973      0.000004      0.000000
      0.000980      0.000004      0.000000
      0.000988      0.000004      0.000000
      0.000996      0.000004      0.000000
      0.000004      0.000012      0.000000
      0.000012      0.000012      0.000000
      0.000020      0.000012      0.000000
      0.000027      0.000012      0.000000
      0.000035      0.000012      0.000000
      0.000043      0.000012      0.000000
      0.000051      0.000012      0.000000
      0.000059      0.000012      0.000000
      0.000066      0.000012      0.000000
      0.000074      0.000012      0.000000
      0.000082      0.000012      0.000000
      0.000090      0.000012      0.000000
      0.000098      0.000012      0.000000
      0.000105      0.000012      0.000000
      0.000113      0.000012      0.000000
      0.000121      0.000012      0.000000
      0.000129      0.000012      0.000000
      0.000137      0.000012      0.000000
      0.000145      0.000012      0.000000
      0.000152      0.000012      0.000000
      0.000160      0.000012      0.000000
      0.000168      0.000012      0.000000
      0.000176      0.000012      0.000000
      0.000184      0.000012      0.000000
      0.000191      0.000012      0.000000
      0.000199      0.000012      0.000000
      0.000207      0.000012      0.000000
      0.000215      0.000012      0.000000
      0.000223      0.000012      0.000000
      0.000230      0.000012      0.000000
      0.000238      0.000012      0.000000
      0.000246      0.000012      0.000000
      0.000254      0.000012      0.000000
      0.000262      0.000012      0.000000
      0.000270      0.000012      0.000000
      0.000277      0.000012      0.000000
      0.000285      0.000012      0.000000
      0.000293      0.000012      0.000000
      0.000301      0.000012      0.000000
      0.000309      0.000012      0.000000
      0.000316      0.000012      0.000000
      0.000324      0.000012      0.000000
      0.000332      0.000012      0.000000
      0.000340      0.000012      0.000000
      0.000348      0.000012      0.000000
      0.000355      0.000012      0.000000
      0.000363      0.000012      0.000000
      0.000371      0.000012      0.000000
      0.000379      0.000012      0.000000
      0.000387      0.000012      0.000000
      0.000395      0.000012      0.000000
      0.000402      0.000012      0.000000
      0.000410      0.000012      0.000000
      0.000418      0.000012      0.000000
      0.000426      0.000012      0.000000
      0.000434      0.000012      0.000000
      0.000441      0.000012      0.000000
      0.000449      0.000012      0.000000
      0.000457      0.000012      0.000000
      0.000465      0.000012      0.000000
      0.000473      0.000012      0.000000
      0.000480      0.000012      0.000000
      0.000488      0.000012      0.000000
      0.000496      0.000012      0.000000
      0.000504      0.000012      0.000000
      0.000512      0.000012      0.000000
      0.000520      0.000012      0.000000
      0.000527      0.000012      0.000000
      0.000535      0.000012      0.000000
      0.000543      0.000012      0.000000
      0.000551      0.000012      0.000000
      0.000559      0.000012      0.000000
      0.000566      0.000012      0.000000
      0.000574      0.000012      0.000000
      0.000582      0.000012      0.000000
      0.000590      0.000012      0.000000
      0.000598      0.000012      0.000000
      0.000605      0.000012      0.000000
      0.000613      0.000012      0.000000
      0.000621      0.000012      0.000000
      0.000629      0.000012      0.000000
      0.000637      0.000012      0.000000
      0.000645      0.000012      0.000000
      0.000652      0.000012      0.000000
      0.000660      0.000012      0.000000
      0.000668      0.000012      0.000000
      0.000676      0.000012      0.000000
      0.000684      0.000012      0.000000
      0.000691      0.000012      0.000000
      0.000699      0.000012      0.000000
      0.000707      0.000012      0.000000
      0.000715      0.000012      0.000000
      0.000723      0.000012      0.000000
      0.000730      0.000012      0.000000
      0.000738      0.000012      0.000000
      0.000746      0.000012      0.000000
      0.000754      0.000012      0.000000
      0.000762      0.000012      0.000000
      0.000770      0.000012      0.000000
      0.000777      0.000012      0.000000
      0.000785      0.000012      0.000000
[...]
POINT_DATA 16384
SCALARS rhoe double
LOOKUP_TABLE default
 0.915601E-013
 0.912995E-013
 0.915209E-013
 0.915873E-013
 0.916939E-013
 0.917914E-013
 0.918904E-013
 0.919888E-013
 0.920870E-013
 0.921849E-013
 0.922825E-013
 0.923799E-013
 0.924769E-013
 0.925736E-013
 0.926699E-013
 0.927659E-013
 0.928615E-013
 0.929567E-013
 0.930514E-013
 0.931456E-013
 0.932394E-013
 0.933325E-013
 0.934251E-013
 0.935170E-013
 0.936082E-013
 0.936987E-013
 0.937883E-013
 0.938771E-013
 0.939650E-013
 0.940519E-013
 0.941377E-013
 0.942224E-013
 0.943058E-013
 0.943880E-013
 0.944688E-013
 0.945481E-013
 0.946259E-013
 0.947021E-013
 0.947765E-013
 0.948491E-013
 0.949197E-013
 0.949884E-013
 0.950550E-013
 0.951193E-013
 0.951814E-013
 0.952410E-013
 0.952982E-013
 0.953528E-013
 0.954047E-013
 0.954539E-013
 0.955002E-013
 0.955435E-013
 0.955839E-013
 0.956212E-013
 0.956553E-013
 0.956862E-013
 0.957139E-013
 0.957382E-013
 0.957591E-013
 0.957766E-013
 0.957906E-013
 0.958012E-013
 0.958082E-013
 0.958117E-013
 0.958117E-013
 0.958082E-013
 0.958012E-013
 0.957906E-013
 0.957766E-013
 0.957591E-013
 0.957382E-013
 0.957138E-013
 0.956862E-013
 0.956553E-013
 0.956212E-013
 0.955839E-013
 0.955435E-013
 0.955002E-013
 0.954538E-013
 0.954047E-013
 0.953528E-013
 0.952982E-013
 0.952410E-013
 0.951814E-013
 0.951193E-013
 0.950549E-013
 0.949884E-013
 0.949197E-013
 0.948490E-013
 0.947764E-013
 0.947020E-013
 0.946259E-013
 0.945481E-013
 0.944687E-013
 0.943879E-013
 0.943058E-013
 0.942223E-013
 0.941376E-013
 0.940518E-013
 0.939650E-013
 0.938771E-013
 0.937883E-013
 0.936986E-013
 0.936081E-013
 0.935169E-013
 0.934250E-013
 0.933325E-013
 0.932393E-013
 0.931456E-013
 0.930513E-013
 0.929566E-013
 0.928615E-013
 0.927659E-013
 0.926699E-013
 0.925735E-013
 0.924768E-013
 0.923798E-013
 0.922825E-013
 0.921848E-013
 0.920869E-013
 0.919887E-013
 0.918903E-013
 0.917914E-013
 0.916938E-013
 0.915873E-013
 0.915209E-013
 0.912995E-013
 0.915601E-013
 0.912995E-013
 0.908482E-013
 0.909613E-013
 0.908681E-013
 0.908336E-013
 0.907857E-013
 0.907406E-013
 0.906952E-013
 0.906499E-013
 0.906048E-013
 0.905598E-013
 0.905150E-013
 0.904703E-013
 0.904258E-013
 0.903814E-013
 0.903372E-013
 0.902932E-013
 0.902494E-013
 0.902058E-013
 0.901625E-013
 0.901194E-013
 0.900765E-013
 0.900339E-013
 0.899916E-013
 0.899497E-013
 0.899081E-013
 0.898668E-013
 0.898260E-013
 0.897856E-013
 0.897457E-013
 0.897062E-013
 0.896673E-013
 0.896289E-013
 0.895912E-013
 0.895540E-013
 0.895176E-013
 0.894818E-013
 0.894468E-013
 0.894126E-013
 0.893793E-013
 0.893468E-013
 0.893153E-013
 0.892847E-013
 0.892551E-013
 0.892266E-013
 0.891992E-013
 0.891729E-013
 0.891479E-013
 0.891240E-013
 0.891015E-013
 0.890802E-013
 0.890603E-013
 0.890417E-013
 0.890246E-013
 0.890089E-013
 0.889947E-013
 0.889821E-013
 0.889709E-013
 0.889613E-013
 0.889533E-013
 0.889468E-013
 0.889420E-013
 0.889387E-013
 0.889371E-013
 0.889371E-013
 0.889387E-013
 0.889420E-013
 0.889468E-013
 0.889533E-013
 0.889613E-013
 0.889709E-013
 0.889821E-013
 0.889948E-013
 0.890090E-013
 0.890247E-013
 0.890418E-013
 0.890603E-013
 0.890802E-013
 0.891015E-013
 0.891241E-013
 0.891479E-013
 0.891730E-013
 0.891993E-013
 0.892267E-013
 0.892552E-013
 0.892848E-013
 0.893153E-013
 0.893469E-013
 0.893794E-013
 0.894127E-013
 0.894469E-013
 0.894819E-013
 0.895177E-013
 0.895541E-013
 0.895913E-013
 0.896290E-013
 0.896674E-013
 0.897063E-013
 0.897458E-013
 0.897857E-013
 0.898261E-013
 0.898669E-013
 0.899082E-013
 0.899498E-013
 0.899917E-013
 0.900340E-013
 0.900766E-013
 0.901194E-013
 0.901626E-013
 0.902059E-013
 0.902495E-013
 0.902933E-013
 0.903373E-013
 0.903815E-013
 0.904259E-013
 0.904704E-013
 0.905151E-013
 0.905599E-013
 0.906049E-013
 0.906500E-013
 0.906952E-013
 0.907406E-013
 0.907858E-013
 0.908336E-013
 0.908681E-013
 0.909613E-013
 0.908482E-013
 0.912995E-013
 0.915209E-013
 0.909613E-013
 0.912015E-013
 0.911494E-013
 0.911805E-013
 0.911924E-013
 0.912079E-013
 0.912228E-013
 0.912378E-013
 0.912526E-013
 0.912675E-013
 0.912823E-013
 0.912970E-013
 0.913117E-013
 0.913263E-013
 0.913409E-013
 0.913554E-013
 0.913698E-013
 0.913842E-013
 0.913985E-013
 0.914127E-013
 0.914268E-013
 0.914408E-013
 0.914548E-013
 0.914686E-013
 0.914823E-013
 0.914959E-013
 0.915094E-013
 0.915227E-013
 0.915358E-013
 0.915488E-013
 0.915617E-013
 0.915743E-013
 0.915867E-013
 0.915990E-013
 0.916110E-013
 0.916228E-013
 0.916343E-013
 0.916456E-013
 0.916566E-013
 0.916673E-013
 0.916777E-013
 0.916877E-013
 0.916975E-013
 0.917069E-013
 0.917159E-013
 0.917245E-013
 0.917328E-013
 0.917407E-013
 0.917481E-013
 0.917551E-013
 0.917617E-013
 0.917678E-013
 0.917734E-013
 0.917786E-013
 0.917833E-013
 0.917874E-013
 0.917911E-013
 0.917943E-013
 0.917969E-013
 0.917990E-013
 0.918006E-013
 0.918017E-013
 0.918022E-013
 0.918022E-013
 0.918017E-013
 0.918006E-013
 0.917990E-013
 0.917969E-013
 0.917943E-013
 0.917911E-013
 0.917874E-013
 0.917832E-013
 0.917786E-013
 0.917734E-013
 0.917678E-013
 0.917616E-013
 0.917551E-013
 0.917481E-013
 0.917406E-013
 0.917328E-013
 0.917245E-013
 0.917159E-013
 0.917068E-013
 0.916974E-013
 0.916877E-013
 0.916776E-013
 0.916672E-013
 0.916565E-013
 0.916455E-013
 0.916343E-013
 0.916227E-013
 0.916110E-013
 0.915989E-013
 0.915867E-013
 0.915743E-013
 0.915616E-013
 0.915488E-013
 0.915358E-013
 0.915226E-013
 0.915093E-013
 0.914959E-013
 0.914823E-013
 0.914686E-013
 0.914547E-013
 0.914408E-013
 0.914268E-013
 0.914127E-013
 0.913984E-013
 0.913842E-013
 0.913698E-013
 0.913553E-013
 0.913408E-013
 0.913263E-013
 0.913117E-013
 0.912970E-013
 0.912822E-013
 0.912675E-013
 0.912526E-013
 0.912378E-013
 0.912228E-013
 0.912079E-013
 0.911924E-013
 0.911805E-013
 0.911494E-013
 0.912014E-013
 0.909613E-013
 0.915209E-013
 0.915873E-013
 0.908681E-013
 0.911494E-013
 0.910595E-013
 0.910763E-013
 0.910684E-013
 0.910652E-013
 0.910613E-013
 0.910575E-013
 0.910537E-013
 0.910500E-013
 0.910462E-013
 0.910424E-013
 0.910387E-013
 0.910350E-013
 0.910313E-013
 0.910276E-013
 0.910239E-013
 0.910202E-013
 0.910166E-013
 0.910130E-013
 0.910094E-013
 0.910058E-013
 0.910023E-013
 0.909988E-013
 0.909953E-013
 0.909919E-013
 0.909884E-013
 0.909851E-013
 0.909817E-013
 0.909784E-013
 0.909752E-013
 0.909720E-013
 0.909688E-013
 0.909657E-013
 0.909627E-013
 0.909597E-013
 0.909568E-013
 0.909539E-013
 0.909511E-013
 0.909484E-013
 0.909458E-013
 0.909432E-013
 0.909408E-013
 0.909384E-013
 0.909361E-013
 0.909339E-013
 0.909319E-013
 0.909299E-013
 0.909280E-013
 0.909262E-013
 0.909246E-013
 0.909230E-013
 0.909216E-013
 0.909203E-013
 0.909191E-013
 0.909181E-013
 0.909171E-013
 0.909163E-013
 0.909157E-013
 0.909151E-013
 0.909147E-013
 0.909145E-013
 0.909143E-013
 0.909143E-013
 0.909145E-013
 0.909147E-013
 0.909151E-013
 0.909157E-013
 0.909163E-013
 0.909171E-013
 0.909181E-013
 0.909191E-013
 0.909203E-013
 0.909216E-013
 0.909230E-013
 0.909246E-013
 0.909262E-013
 0.909280E-013
 0.909299E-013
 0.909319E-013
 0.909340E-013
 0.909361E-013
 0.909384E-013
 0.909408E-013
 0.909433E-013
 0.909458E-013
 0.909484E-013
 0.909511E-013
 0.909539E-013
 0.909568E-013
 0.909597E-013
 0.909627E-013
 0.909657E-013
 0.909688E-013
 0.909720E-013
 0.909752E-013
 0.909784E-013
 0.909817E-013
 0.909851E-013
 0.909885E-013
 0.909919E-013
 0.909953E-013
 0.909988E-013
 0.910023E-013
 0.910059E-013
 0.910094E-013
 0.910130E-013
 0.910166E-013
 0.910203E-013
 0.910239E-013
 0.910276E-013
 0.910313E-013
 0.910350E-013
 0.910387E-013
 0.910424E-013
 0.910462E-013
 0.910500E-013
 0.910537E-013
 0.910575E-013
 0.910613E-013
 0.910652E-013
 0.910684E-013
 0.910763E-013
 0.910595E-013
 0.911494E-013
 0.908681E-013
 0.915873E-013
 0.916939E-013
 0.908336E-013
 0.911805E-013
 0.910763E-013
 0.911024E-013
 0.910982E-013
 0.910998E-013
 0.911005E-013
 0.911013E-013
 0.911021E-013
 0.911029E-013
 0.911037E-013
 0.911044E-013
 0.911052E-013
 0.911060E-013
 0.911067E-013
 0.911075E-013
 0.911083E-013
 0.911090E-013
 0.911098E-013
 0.911105E-013
 0.911113E-013
 0.911120E-013
 0.911127E-013
 0.911135E-013
 0.911142E-013
 0.911149E-013
 0.911156E-013
 0.911163E-013
 0.911170E-013
 0.911177E-013
 0.911184E-013
 0.911190E-013
 0.911197E-013
 0.911203E-013
 0.911210E-013
 0.911216E-013
 0.911222E-013
 0.911228E-013
 0.911234E-013
 0.911239E-013
 0.911245E-013
 0.911250E-013
 0.911255E-013
 0.911260E-013
 0.911265E-013
 0.911270E-013
 0.911274E-013
 0.911278E-013
 0.911282E-013
 0.911286E-013
 0.911290E-013
 0.911293E-013
 0.911296E-013
 0.911299E-013
 0.911301E-013
 0.911303E-013
 0.911305E-013
 0.911307E-013
 0.911308E-013
 0.911309E-013
 0.911310E-013
 0.911311E-013
 0.911311E-013
 0.911311E-013
 0.911311E-013
 0.911310E-013
 0.911309E-013
 0.911308E-013
 0.911307E-013
 0.911305E-013
 0.911303E-013
 0.911301E-013
 0.911299E-013
 0.911296E-013
 0.911293E-013
 0.911290E-013
 0.911286E-013
 0.911282E-013
 0.911278E-013
 0.911274E-013
 0.911270E-013
 0.911265E-013
 0.911260E-013
 0.911255E-013
 0.911250E-013
 0.911245E-013
 0.911239E-013
 0.911234E-013
 0.911228E-013
 0.911222E-013
 0.911216E-013
 0.911210E-013
 0.911203E-013
 0.911197E-013
 0.911190E-013
 0.911184E-013
 0.911177E-013
 0.911170E-013
 0.911163E-013
 0.911156E-013
 0.911149E-013
 0.911142E-013
 0.911135E-013
 0.911127E-013
 0.911120E-013
 0.911113E-013
 0.911105E-013
 0.911098E-013
 0.911090E-013
 0.911083E-013
 0.911075E-013
 0.911067E-013
 0.911060E-013
 0.911052E-013
 0.911044E-013
 0.911037E-013
 0.911029E-013
 0.911021E-013
 0.911013E-013
 0.911005E-013
 0.910998E-013
 0.910982E-013
 0.911024E-013
 0.910763E-013
 0.911805E-013
 0.908336E-013
 0.916938E-013
 0.917914E-013
 0.907857E-013
 0.911924E-013
 0.910684E-013
 0.910982E-013
 0.910921E-013
 0.910929E-013
 0.910927E-013
 0.910925E-013
 0.910924E-013
 0.910923E-013
 0.910921E-013
 0.910920E-013
 0.910919E-013
 0.910917E-013
 0.910916E-013
 0.910915E-013
 0.910913E-013
 0.910912E-013
 0.910911E-013
 0.910909E-013
 0.910908E-013
 0.910907E-013
 0.910905E-013
 0.910904E-013
 0.910903E-013
 0.910902E-013
 0.910901E-013
 0.910899E-013
 0.910898E-013
 0.910897E-013
 0.910896E-013
 0.910895E-013
 0.910894E-013
 0.910893E-013
 0.910892E-013
 0.910891E-013
 0.910890E-013
 0.910889E-013
 0.910888E-013
 0.910887E-013
 0.910886E-013
 0.910885E-013
 0.910884E-013
 0.910884E-013
 0.910883E-013
 0.910882E-013
 0.910881E-013
 0.910881E-013
 0.910880E-013
 0.910880E-013
 0.910879E-013
 0.910879E-013
 0.910878E-013
 0.910878E-013
 0.910877E-013
 0.910877E-013
 0.910877E-013
 0.910876E-013
 0.910876E-013
 0.910876E-013
 0.910876E-013
 0.910876E-013
 0.910876E-013
 0.910876E-013
 0.910876E-013
 0.910876E-013
 0.910876E-013
 0.910876E-013
 0.910876E-013
 0.910877E-013
 0.910877E-013
 0.910877E-013
 0.910878E-013
 0.910878E-013
 0.910879E-013
 0.910879E-013
 0.910880E-013
 0.910880E-013
 0.910881E-013
 0.910881E-013
 0.910882E-013
 0.910883E-013
 0.910884E-013
 0.910884E-013
 0.910885E-013
 0.910886E-013
 0.910887E-013
 0.910888E-013
 0.910889E-013
 0.910890E-013
 0.910891E-013
 0.910892E-013
 0.910893E-013
 0.910894E-013
 0.910895E-013
 0.910896E-013
 0.910897E-013
 0.910898E-013
 0.910899E-013
 0.910901E-013
 0.910902E-013
 0.910903E-013
 0.910904E-013
 0.910906E-013
 0.910907E-013
 0.910908E-013
 0.910909E-013
 0.910911E-013
 0.910912E-013
 0.910913E-013
 0.910915E-013
 0.910916E-013
 0.910917E-013
 0.910919E-013
 0.910920E-013
 0.910921E-013
 0.910923E-013
 0.910924E-013
 0.910925E-013
 0.910927E-013
 0.910929E-013
 0.910921E-013
 0.910982E-013
 0.910684E-013
 0.911924E-013
 0.907858E-013
 0.917914E-013
 0.918904E-013
 0.907406E-013
 0.912079E-013
 0.910652E-013
 0.910998E-013
 0.910929E-013
 0.910941E-013
 0.910940E-013
 0.910940E-013
 0.910940E-013
 0.910941E-013
 0.910941E-013
 0.910941E-013
 0.910941E-013
 0.910941E-013
 0.910942E-013
 0.910942E-013
 0.910942E-013
 0.910942E-013
 0.910942E-013
 0.910943E-013
 0.910943E-013
 0.910943E-013
 0.910943E-013
 0.910944E-013
 0.910944E-013
 0.910944E-013
 0.910944E-013
 0.910944E-013
 0.910945E-013
 0.910945E-013
 0.910945E-013
 0.910945E-013
 0.910946E-013
 0.910946E-013
 0.910946E-013
 0.910946E-013
 0.910946E-013
 0.910947E-013
 0.910947E-013
 0.910947E-013
 0.910947E-013
 0.910948E-013
 0.910948E-013
 0.910948E-013
 0.910948E-013
 0.910948E-013
 0.910949E-013
 0.910949E-013
 0.910949E-013
 0.910949E-013
 0.910949E-013
 0.910950E-013
 0.910950E-013
 0.910950E-013
 0.910950E-013
 0.910950E-013
 0.910950E-013
 0.910950E-013
 0.910950E-013
 0.910950E-013
 0.910950E-013
 0.910951E-013
 0.910951E-013
 0.910951E-013
 0.910951E-013
 0.910950E-013
 0.910950E-013
 0.910950E-013
 0.910950E-013
 0.910950E-013
 0.910950E-013
 0.910950E-013
 0.910950E-013
 0.910950E-013
 0.910950E-013
 0.910949E-013
 0.910949E-013
 0.910949E-013
 0.910949E-013
 0.910949E-013
 0.910948E-013
 0.910948E-013
 0.910948E-013
 0.910948E-013
 0.910948E-013
 0.910947E-013
 0.910947E-013
 0.910947E-013
 0.910947E-013
 0.910946E-013
 0.910946E-013
 0.910946E-013
 0.910946E-013
 0.910946E-013
 0.910945E-013
 0.910945E-013
 0.910945E-013
 0.910945E-013
 0.910944E-013
 0.910944E-013
 0.910944E-013
 0.910944E-013
 0.910944E-013
 0.910943E-013
 0.910943E-013
 0.910943E-013
 0.910943E-013
 0.910943E-013
 0.910942E-013
 0.910942E-013
 0.910942E-013
 0.910942E-013
 0.910941E-013
 0.910941E-013
 0.910941E-013
 0.910941E-013
 0.910941E-013
 0.910940E-013
 0.910940E-013
 0.910940E-013
 0.910941E-013
 0.910929E-013
 0.910998E-013
 0.910652E-013
 0.912079E-013
 0.907407E-013
 0.918903E-013
 0.919888E-013
 0.906952E-013
 0.912228E-013
 0.910613E-013
 0.911005E-013
 0.910927E-013
 0.910940E-013
 0.910938E-013
 0.910938E-013
 0.910938E-013
 0.910938E-013
 0.910938E-013
 0.910938E-013
 0.910938E-013
 0.910938E-013
 0.910938E-013
 0.910938E-013
 0.910938E-013
 0.910938E-013
 0.910938E-013
 0.910938E-013
 0.910938E-013
 0.910938E-013
 0.910938E-013
 0.910938E-013
 0.910938E-013
 0.910938E-013
 0.910938E-013
 0.910938E-013
 0.910938E-013
 0.910938E-013
 0.910938E-013
 0.910938E-013
 0.910938E-013
 0.910938E-013
 0.910938E-013
 0.910938E-013
 0.910938E-013
 0.910938E-013
 0.910938E-013
 0.910938E-013
 0.910939E-013
 0.910939E-013
 0.910939E-013
 0.910939E-013
 0.910939E-013
 0.910939E-013
 0.910939E-013
 0.910939E-013
 0.910939E-013
 0.910939E-013
 0.910939E-013
 0.910940E-013
 0.910940E-013
 0.910940E-013
 0.910940E-013
 0.910940E-013
 0.910940E-013
 0.910940E-013
 0.910940E-013
 0.910940E-013
 0.910940E-013
 0.910940E-013
 0.910940E-013
 0.910940E-013
 0.910940E-013
 0.910940E-013
 0.910940E-013
 0.910940E-013
 0.910940E-013
 0.910940E-013
 0.910940E-013
 0.910940E-013
 0.910940E-013
 0.910940E-013
 0.910940E-013
 0.910939E-013
 0.910939E-013
 0.910939E-013
 0.910939E-013
 0.910939E-013
 0.910939E-013
 0.910939E-013
 0.910939E-013
 0.910939E-013
 0.910939E-013
 0.910939E-013
 0.910938E-013
 0.910938E-013
 0.910938E-013
 0.910938E-013
 0.910938E-013
 0.910938E-013
 0.910938E-013
 0.910938E-013
 0.910938E-013
 0.910938E-013
 0.910938E-013
 0.910938E-013
 0.910938E-013
 0.910938E-013
 0.910938E-013
 0.910938E-013
 0.910938E-013
 0.910938E-013
 0.910938E-013
 0.910938E-013
 0.910938E-013
 0.910938E-013
 0.910938E-013
 0.910938E-013
 0.910938E-013
 0.910938E-013
 0.910938E-013
 0.910938E-013
 0.910938E-013
 0.910938E-013
 0.910938E-013
 0.910938E-013
 0.910938E-013
 0.910938E-013
 0.910940E-013
 0.910927E-013
 0.911005E-013
 0.910613E-013
 0.912228E-013
 0.906952E-013
 0.919887E-013
 0.920870E-013
 0.906499E-013
 0.912378E-013
 0.910575E-013
 0.911013E-013
 0.910925E-013
 0.910940E-013
 0.910938E-013
 0.910938E-013
 0.910938E-013
 0.910938E-013
 0.910938E-013
 0.910938E-013
 0.910938E-013
 0.910938E-013
 0.910938E-013
 0.910938E-013
 0.910938E-013
 0.910938E-013
 0.910938E-013
 0.910938E-013
 0.910938E-013
 0.910938E-013
 0.910939E-013
 0.910939E-013
 0.910939E-013
 0.910939E-013
 0.910939E-013
 0.910939E-013
 0.910939E-013
 0.910939E-013
 0.910939E-013
 0.910939E-013
 0.910939E-013
 0.910939E-013
 0.910939E-013
 0.910939E-013
 0.910939E-013
 0.910940E-013
 0.910940E-013
 0.910940E-013
 0.910940E-013
 0.910940E-013
 0.910940E-013
 0.910940E-013
 0.910940E-013
 0.910941E-013
 0.910941E-013
 0.910941E-013
 0.910941E-013
 0.910941E-013
 0.910941E-013
 0.910941E-013
 0.910941E-013
 0.910942E-013
 0.910942E-013
 0.910942E-013
 0.910942E-013
 0.910942E-013
 0.910942E-013
 0.910942E-013
 0.910942E-013
 0.910942E-013
 0.910942E-013
 0.910942E-013
 0.910942E-013
 0.910942E-013
 0.910942E-013
 0.910942E-013
 0.910942E-013
 0.910942E-013
 0.910942E-013
 0.910942E-013
 0.910942E-013
 0.910941E-013
 0.910941E-013
 0.910941E-013
 0.910941E-013
 0.910941E-013
 0.910941E-013
 0.910941E-013
 0.910941E-013
 0.910940E-013
 0.910940E-013
 0.910940E-013
 0.910940E-013
 0.910940E-013
 0.910940E-013
 0.910940E-013
 0.910940E-013
 0.910940E-013
 0.910939E-013
 0.910939E-013
 0.910939E-013
 0.910939E-013
 0.910939E-013
 0.910939E-013
 0.910939E-013
 0.910939E-013
 0.910939E-013
 0.910939E-013
 0.910939E-013
 0.910939E-013
 0.910939E-013
 0.910939E-013
 0.910939E-013
 0.910938E-013
 0.910938E-013
 0.910938E-013
 0.910938E-013
 0.910938E-013
 0.910938E-013
 0.910938E-013
 0.910938E-013
 0.910938E-013
 0.910938E-013
 0.910938E-013
 0.910938E-013
 0.910938E-013
 0.910938E-013
 0.910938E-013
 0.910940E-013
 0.910925E-013
 0.911013E-013
 0.910575E-013
 0.912378E-013
 0.906500E-013
 0.920869E-013
 0.921849E-013
 0.906048E-013
 0.912526E-013
 0.910537E-013
 0.911021E-013
 0.910924E-013
 0.910940E-013
 0.910938E-013
 0.910938E-013
 0.910938E-013
 0.910938E-013
 0.910938E-013
 0.910938E-013
 0.910938E-013
 0.910938E-013
 0.910938E-013
 0.910938E-013
 0.910938E-013
 0.910938E-013
 0.910938E-013
 0.910938E-013
 0.910938E-013
 0.910938E-013
 0.910938E-013
 0.910939E-013
 0.910939E-013
 0.910939E-013
 0.910939E-013
 0.910939E-013
 0.910939E-013
 0.910939E-013
 0.910939E-013
 0.910939E-013
 0.910939E-013
 0.910939E-013
 0.910939E-013
 0.910939E-013
 0.910940E-013
 0.910940E-013
 0.910940E-013
 0.910940E-013
 0.910940E-013
 0.910940E-013
 0.910940E-013
 0.910941E-013
 0.910941E-013
 0.910941E-013
 0.910941E-013
 0.910941E-013
 0.910941E-013
 0.910941E-013
 0.910942E-013
 0.910942E-013
 0.910942E-013
 0.910942E-013
 0.910942E-013
 0.910942E-013
 0.910942E-013
 0.910942E-013
 0.910942E-013
 0.910943E-013
 0.910943E-013
 0.910943E-013
 0.910943E-013
 0.910943E-013
 0.910943E-013
 0.910943E-013
 0.910943E-013
 0.910942E-013
 0.910942E-013
 0.910942E-013
 0.910942E-013
 0.910942E-013
 0.910942E-013
 0.910942E-013
 0.910942E-013
 0.910942E-013
 0.910941E-013
 0.910941E-013
 0.910941E-013
 0.910941E-013
 0.910941E-013
 0.910941E-013
 0.910941E-013
 0.910940E-013
 0.910940E-013
 0.910940E-013
 0.910940E-013
 0.910940E-013
 0.910940E-013
 0.910940E-013
 0.910939E-013
 0.910939E-013
 0.910939E-013
 0.910939E-013
 0.910939E-013
 0.910939E-013
 0.910939E-013
 0.910939E-013
 0.910939E-013
 0.910939E-013
 0.910939E-013
 0.910939E-013
 0.910939E-013
 0.910939E-013
 0.910938E-013
 0.910938E-013
 0.910938E-013
 0.910938E-013
 0.910938E-013
 0.910938E-013
 0.910938E-013
 0.910938E-013
 0.910938E-013
 0.910938E-013
 0.910938E-013
 0.910938E-013
 0.910938E-013
 0.910938E-013
 0.910938E-013
 0.910938E-013
 0.910940E-013
 0.910924E-013
 0.911021E-013
 0.910537E-013
 0.912526E-013
 0.906049E-013
 0.921848E-013
 0.922825E-013
 0.905598E-013
 0.912675E-013
 0.910500E-013
 0.911029E-013
 0.910923E-013
 0.910941E-013
 0.910938E-013
 0.910938E-013
 0.910938E-013
 0.910938E-013
 0.910938E-013
 0.910938E-013
 0.910938E-013
 0.910938E-013
 0.910938E-013
 0.910938E-013
 0.910938E-013
 0.910938E-013
 0.910938E-013
 0.910938E-013
 0.910938E-013
 0.910938E-013
 0.910939E-013
 0.910939E-013
 0.910939E-013
 0.910939E-013
 0.910939E-013
 0.910939E-013
 0.910939E-013
 0.910939E-013
 0.910939E-013
 0.910939E-013
 0.910939E-013
 0.910939E-013
 0.910940E-013
 0.910940E-013
 0.910940E-013
 0.910940E-013
 0.910940E-013
 0.910940E-013
 0.910940E-013
 0.910941E-013
 0.910941E-013
 0.910941E-013
 0.910941E-013
 0.910941E-013
 0.910942E-013
 0.910942E-013