# vtk DataFile Version 3.0
Solution data
ASCII
DATASET STRUCTURED_GRID
DIMENSIONS 128 128 1
POINTS 16384  double
      0.000004      0.000004      0.000000
      0.000012      0.000004      0.000000
      0.000020      0.000004      0.000000
      0.000027      0.000004      0.000000
      0.000035      0.000004      0.000000
      0.000043      0.000004      0.000000
      0.000051      0.000004      0.000000
      0.000059      0.000004      0.000000
      0.000066      0.000004      0.000000
      0.000074      0.000004      0.000000
      0.000082      0.000004      0.000000
      0.000090      0.000004      0.000000
      0.000098      0.000004      0.000000
      0.000105      0.000004      0.000000
      0.000113      0.000004      0.000000
      0.000121      0.000004      0.000000
      0.000129      0.000004      0.000000
      0.000137      0.000004      0.000000
      0.000145      0.000004      0.000000
      0.000152      0.000004      0.000000
      0.000160      0.000004      0.000000
      0.000168      0.000004      0.000000
      0.000176      0.000004      0.000000
      0.000184      0.000004      0.000000
      0.000191      0.000004      0.000000
      0.000199      0.000004      0.000000
      0.000207      0.000004      0.000000
      0.000215      0.000004      0.000000
      0.000223      0.000004      0.000000
      0.000230      0.000004      0.000000
      0.000238      0.000004      0.000000
      0.000246      0.000004      0.000000
      0.000254      0.000004      0.000000
      0.000262      0.000004      0.000000
      0.000270      0.000004      0.000000
      0.000277      0.000004      0.000000
      0.000285      0.000004      0.000000
      0.000293      0.000004      0.000000
      0.000301      0.000004      0.000000
      0.000309      0.000004      0.000000
      0.000316      0.000004      0.000000
      0.000324      0.000004      0.000000
      0.000332      0.000004      0.000000
      0.000340      0.000004      0.000000
      0.000348      0.000004      0.000000
      0.000355      0.000004      0.000000
      0.000363      0.000004      0.000000
      0.000371      0.000004      0.000000
      0.000379      0.000004      0.000000
      0.000387      0.000004      0.000000
      0.000395      0.000004      0.000000
      0.000402      0.000004      0.000000
      0.000410      0.000004      0.000000
      0.000418      0.000004      0.000000
      0.000426      0.000004      0.000000
      0.000434      0.000004      0.000000
      0.000441      0.000004      0.000000
      0.000449      0.000004      0.000000
      0.000457      0.000004      0.000000
      0.000465      0.000004      0.000000
      0.000473      0.000004      0.000000
      0.000480      0.000004      0.000000
      0.000488      0.000004      0.000000
      0.000496      0.000004      0.000000
      0.000504      0.000004      0.000000
      0.000512      0.000004      0.000000
      0.000520      0.000004      0.000000
      0.000527      0.000004      0.000000
      0.000535      0.000004      0.000000
      0.000543      0.000004      0.000000
      0.000551      0.000004      0.000000
      0.000559      0.000004      0.000000
      0.000566      0.000004      0.000000
      0.000574      0.000004      0.000000
      0.000582      0.000004      0.000000
      0.000590      0.000004      0.000000
      0.000598      0.000004      0.000000
      0.000605      0.000004      0.000000
      0.000613      0.000004      0.000000
      0.000621      0.000004      0.000000
      0.000629      0.000004      0.000000
      0.000637      0.000004      0.000000
      0.000645      0.000004      0.000000
      0.000652      0.000004      0.000000
      0.000660      0.000004      0.000000
      0.000668      0.000004      0.000000
      0.000676      0.000004      0.000000
      0.000684      0.000004      0.000000
      0.000691      0.000004      0.000000
      0.000699      0.000004      0.000000
      0.000707      0.000004      0.000000
      0.000715      0.000004      0.000000
      0.000723      0.000004      0.000000
      0.000730      0.000004      0.000000
      0.000738      0.000004      0.000000
      0.000746      0.000004      0.000000
      0.000754      0.000004      0.000000
      0.000762      0.000004      0.000000
      0.000770      0.000004      0.000000
      0.000777      0.000004      0.000000
      0.000785      0.000004      0.000000
      0.000793      0.000004      0.000000
      0.000801      0.000004      0.000000
      0.000809      0.000004      0.000000
      0.000816      0.000004      0.000000
      0.000824      0.000004      0.000000
      0.000832      0.000004      0.000000
      0.000840      0.000004      0.000000
      0.000848      0.000004      0.000000
      0.000855      0.000004      0.000000
      0.000863      0.000004      0.000000
      0.000871      0.000004      0.000000
      0.000879      0.000004      0.000000
      0.000887      0.000004      0.000000
      0.000895      0.000004      0.000000
      0.000902      0.000004      0.000000
      0.000910      0.000004      0.000000
      0.000918      0.000004      0.000000
      0.000926      0.000004      0.000000
      0.000934      0.000004      0.000000
      0.000941      0.000004      0.000000
      0.000949      0.000004      0.000000
      0.000957      0.000004      0.000000
      0.000965      0.000004      0.000000
      0.000973      0.000004      0.000000
      0.000980      0.000004      0.000000
      0.000988      0.000004      0.000000
      0.000996      0.000004      0.000000
      0.000004      0.000012      0.000000
      0.000012      0.000012      0.000000
      0.000020      0.000012      0.000000
      0.000027      0.000012      0.000000
      0.000035      0.000012      0.000000
      0.000043      0.000012      0.000000
      0.000051      0.000012      0.000000
      0.000059      0.000012      0.000000
      0.000066      0.000012      0.000000
      0.000074      0.000012      0.000000
      0.000082      0.000012      0.000000
      0.000090      0.000012      0.000000
      0.000098      0.000012      0.000000
      0.000105      0.000012      0.000000
      0.000113      0.000012      0.000000
      0.000121      0.000012      0.000000
      0.000129      0.000012      0.000000
      0.000137      0.000012      0.000000
      0.000145      0.000012      0.000000
      0.000152      0.000012      0.000000
      0.000160      0.000012      0.000000
      0.000168      0.000012      0.000000
      0.000176      0.000012      0.000000
      0.000184      0.000012      0.000000
      0.000191      0.000012      0.000000
      0.000199      0.000012      0.000000
      0.000207      0.000012      0.000000
      0.000215      0.000012      0.000000
      0.000223      0.000012      0.000000
      0.000230      0.000012      0.000000
      0.000238      0.000012      0.000000
      0.000246      0.000012      0.000000
      0.000254      0.000012      0.000000
      0.000262      0.000012      0.000000
      0.000270      0.000012      0.000000
      0.000277      0.000012      0.000000
      0.000285      0.000012      0.000000
      0.000293      0.000012      0.000000
      0.000301      0.000012      0.000000
      0.000309      0.000012      0.000000
      0.000316      0.000012      0.000000
      0.000324      0.000012      0.000000
      0.000332      0.000012      0.000000
      0.000340      0.000012      0.000000
      0.000348      0.000012      0.000000
      0.000355      0.000012      0.000000
      0.000363      0.000012      0.000000
      0.000371      0.000012      0.000000
      0.000379      0.000012      0.000000
      0.000387      0.000012      0.000000
      0.000395      0.000012      0.000000
      0.000402      0.000012      0.000000
      0.000410      0.000012      0.000000
      0.000418      0.000012      0.000000
      0.000426      0.000012      0.000000
      0.000434      0.000012      0.000000
      0.000441      0.000012      0.000000
      0.000449      0.000012      0.000000
      0.000457      0.000012      0.000000
      0.000465      0.000012      0.000000
      0.000473      0.000012      0.000000
      0.000480      0.000012      0.000000
      0.000488      0.000012      0.000000
      0.000496      0.000012      0.000000
      0.000504      0.000012      0.000000
      0.000512      0.000012      0.000000
      0.000520      0.000012      0.000000
      0.000527      0.000012      0.000000
      0.000535      0.000012      0.000000
      0.000543      0.000012      0.000000
      0.000551      0.000012      0.000000
      0.000559      0.000012      0.000000
      0.000566      0.000012      0.000000
      0.000574      0.000012      0.000000
      0.000582      0.000012      0.000000
      0.000590      0.000012      0.000000
      0.000598      0.000012      0.000000
      0.000605      0.000012      0.000000
      0.000613      0.000012      0.000000
      0.000621      0.000012      0.000000
      0.000629      0.000012      0.000000
      0.000637      0.000012      0.000000
      0.000645      0.000012      0.000000
      0.000652      0.000012      0.000000
      0.000660      0.000012      0.000000
      0.000668      0.000012      0.000000
      0.000676      0.000012      0.000000
      0.000684      0.000012      0.000000
      0.000691      0.000012      0.000000
      0.000699      0.000012      0.000000
      0.000707      0.000012      0.000000
      0.000715      0.000012      0.000000
      0.000723      0.000012      0.000000
      0.000730      0.000012      0.000000
      0.000738      0.000012      0.000000
      0.000746      0.000012      0.000000
      0.000754      0.000012      0.000000
      0.000762      0.000012      0.000000
      0.000770      0.000012      0.000000
      0.000777      0.000012      0.000000
      0.000785      0.000012      0.000000
[...]
POINT_DATA 16384
SCALARS rhoe double
LOOKUP_TABLE default
 0.915136E-013
 0.913138E-013
 0.915046E-013
 0.915877E-013
 0.916940E-013
 0.917959E-013
 0.918982E-013
 0.920002E-013
 0.921019E-013
 0.922034E-013
 0.923046E-013
 0.924055E-013
 0.925061E-013
 0.926063E-013
 0.927063E-013
 0.928059E-013
 0.929051E-013
 0.930038E-013
 0.931022E-013
 0.932000E-013
 0.932974E-013
 0.933942E-013
 0.934903E-013
 0.935859E-013
 0.936807E-013
 0.937748E-013
 0.938681E-013
 0.939605E-013
 0.940519E-013
 0.941424E-013
 0.942317E-013
 0.943199E-013
 0.944069E-013
 0.944925E-013
 0.945767E-013
 0.946594E-013
 0.947405E-013
 0.948200E-013
 0.948976E-013
 0.949734E-013
 0.950471E-013
 0.951188E-013
 0.951883E-013
 0.952556E-013
 0.953204E-013
 0.953827E-013
 0.954425E-013
 0.954995E-013
 0.955538E-013
 0.956052E-013
 0.956536E-013
 0.956990E-013
 0.957412E-013
 0.957802E-013
 0.958159E-013
 0.958483E-013
 0.958772E-013
 0.959026E-013
 0.959245E-013
 0.959428E-013
 0.959575E-013
 0.959686E-013
 0.959760E-013
 0.959797E-013
 0.959797E-013
 0.959760E-013
 0.959686E-013
 0.959575E-013
 0.959428E-013
 0.959245E-013
 0.959026E-013
 0.958772E-013
 0.958482E-013
 0.958159E-013
 0.957802E-013
 0.957412E-013
 0.956989E-013
 0.956536E-013
 0.956051E-013
 0.955537E-013
 0.954994E-013
 0.954424E-013
 0.953826E-013
 0.953203E-013
 0.952554E-013
 0.951882E-013
 0.951187E-013
 0.950470E-013
 0.949732E-013
 0.948975E-013
 0.948198E-013
 0.947404E-013
 0.946593E-013
 0.945766E-013
 0.944923E-013
 0.944067E-013
 0.943198E-013
 0.942316E-013
 0.941422E-013
 0.940518E-013
 0.939603E-013
 0.938679E-013
 0.937747E-013
 0.936806E-013
 0.935857E-013
 0.934902E-013
 0.933940E-013
 0.932972E-013
 0.931999E-013
 0.931020E-013
 0.930037E-013
 0.929049E-013
 0.928057E-013
 0.927062E-013
 0.926062E-013
 0.925060E-013
 0.924054E-013
 0.923045E-013
 0.922033E-013
 0.921018E-013
 0.920001E-013
 0.918982E-013
 0.917959E-013
 0.916940E-013
 0.915876E-013
 0.915046E-013
 0.913138E-013
 0.915135E-013
 0.913138E-013
 0.908926E-013
 0.909784E-013
 0.909085E-013
 0.908750E-013
 0.908349E-013
 0.907959E-013
 0.907569E-013
 0.907180E-013
 0.906793E-013
 0.906406E-013
 0.906021E-013
 0.905637E-013
 0.905254E-013
 0.904873E-013
 0.904493E-013
 0.904115E-013
 0.903738E-013
 0.903364E-013
 0.902991E-013
 0.902620E-013
 0.902252E-013
 0.901886E-013
 0.901522E-013
 0.901162E-013
 0.900804E-013
 0.900449E-013
 0.900098E-013
 0.899751E-013
 0.899407E-013
 0.899068E-013
 0.898733E-013
 0.898403E-013
 0.898078E-013
 0.897758E-013
 0.897445E-013
 0.897137E-013
 0.896836E-013
 0.896541E-013
 0.896254E-013
 0.895975E-013
 0.895703E-013
 0.895440E-013
 0.895186E-013
 0.894940E-013
 0.894704E-013
 0.894478E-013
 0.894262E-013
 0.894057E-013
 0.893862E-013
 0.893679E-013
 0.893508E-013
 0.893348E-013
 0.893201E-013
 0.893066E-013
 0.892943E-013
 0.892834E-013
 0.892738E-013
 0.892655E-013
 0.892586E-013
 0.892531E-013
 0.892489E-013
 0.892461E-013
 0.892447E-013
 0.892447E-013
 0.892461E-013
 0.892489E-013
 0.892531E-013
 0.892586E-013
 0.892656E-013
 0.892738E-013
 0.892834E-013
 0.892944E-013
 0.893066E-013
 0.893201E-013
 0.893349E-013
 0.893508E-013
 0.893680E-013
 0.893863E-013
 0.894058E-013
 0.894263E-013
 0.894479E-013
 0.894705E-013
 0.894941E-013
 0.895186E-013
 0.895441E-013
 0.895704E-013
 0.895976E-013
 0.896255E-013
 0.896543E-013
 0.896837E-013
 0.897138E-013
 0.897446E-013
 0.897759E-013
 0.898079E-013
 0.898404E-013
 0.898734E-013
 0.899069E-013
 0.899408E-013
 0.899752E-013
 0.900099E-013
 0.900450E-013
 0.900805E-013
 0.901163E-013
 0.901523E-013
 0.901887E-013
 0.902253E-013
 0.902621E-013
 0.902992E-013
 0.903365E-013
 0.903739E-013
 0.904116E-013
 0.904494E-013
 0.904874E-013
 0.905255E-013
 0.905638E-013
 0.906022E-013
 0.906407E-013
 0.906793E-013
 0.907181E-013
 0.907570E-013
 0.907960E-013
 0.908349E-013
 0.908751E-013
 0.909085E-013
 0.909784E-013
 0.908927E-013
 0.913138E-013
 0.915046E-013
 0.909784E-013
 0.911665E-013
 0.911334E-013
 0.911524E-013
 0.911615E-013
 0.911722E-013
 0.911826E-013
 0.911930E-013
 0.912033E-013
 0.912137E-013
 0.912239E-013
 0.912342E-013
 0.912444E-013
 0.912546E-013
 0.912648E-013
 0.912749E-013
 0.912849E-013
 0.912949E-013
 0.913049E-013
 0.913148E-013
 0.913246E-013
 0.913344E-013
 0.913441E-013
 0.913537E-013
 0.913633E-013
 0.913727E-013
 0.913821E-013
 0.913914E-013
 0.914005E-013
 0.914096E-013
 0.914185E-013
 0.914273E-013
 0.914360E-013
 0.914445E-013
 0.914529E-013
 0.914611E-013
 0.914691E-013
 0.914770E-013
 0.914846E-013
 0.914921E-013
 0.914993E-013
 0.915064E-013
 0.915132E-013
 0.915197E-013
 0.915260E-013
 0.915320E-013
 0.915378E-013
 0.915433E-013
 0.915485E-013
 0.915533E-013
 0.915579E-013
 0.915622E-013
 0.915661E-013
 0.915697E-013
 0.915730E-013
 0.915759E-013
 0.915784E-013
 0.915807E-013
 0.915825E-013
 0.915840E-013
 0.915851E-013
 0.915858E-013
 0.915862E-013
 0.915862E-013
 0.915858E-013
 0.915851E-013
 0.915840E-013
 0.915825E-013
 0.915806E-013
 0.915784E-013
 0.915759E-013
 0.915730E-013
 0.915697E-013
 0.915661E-013
 0.915622E-013
 0.915579E-013
 0.915533E-013
 0.915484E-013
 0.915432E-013
 0.915378E-013
 0.915320E-013
 0.915260E-013
 0.915197E-013
 0.915131E-013
 0.915063E-013
 0.914993E-013
 0.914921E-013
 0.914846E-013
 0.914770E-013
 0.914691E-013
 0.914611E-013
 0.914529E-013
 0.914445E-013
 0.914360E-013
 0.914273E-013
 0.914185E-013
 0.914096E-013
 0.914005E-013
 0.913914E-013
 0.913821E-013
 0.913727E-013
 0.913632E-013
 0.913537E-013
 0.913441E-013
 0.913344E-013
 0.913246E-013
 0.913148E-013
 0.913049E-013
 0.912949E-013
 0.912849E-013
 0.912748E-013
 0.912647E-013
 0.912546E-013
 0.912444E-013
 0.912342E-013
 0.912239E-013
 0.912136E-013
 0.912033E-013
 0.911929E-013
 0.911825E-013
 0.911721E-013
 0.911615E-013
 0.911524E-013
 0.911334E-013
 0.911665E-013
 0.909784E-013
 0.915046E-013
 0.915877E-013
 0.909085E-013
 0.911334E-013
 0.910750E-013
 0.910838E-013
 0.910799E-013
 0.910780E-013
 0.910758E-013
 0.910737E-013
 0.910716E-013
 0.910695E-013
 0.910674E-013
 0.910653E-013
 0.910632E-013
 0.910611E-013
 0.910591E-013
 0.910570E-013
 0.910549E-013
 0.910529E-013
 0.910509E-013
 0.910489E-013
 0.910469E-013
 0.910449E-013
 0.910429E-013
 0.910409E-013
 0.910390E-013
 0.910371E-013
 0.910352E-013
 0.910333E-013
 0.910314E-013
 0.910296E-013
 0.910278E-013
 0.910260E-013
 0.910242E-013
 0.910225E-013
 0.910208E-013
 0.910191E-013
 0.910175E-013
 0.910159E-013
 0.910144E-013
 0.910129E-013
 0.910114E-013
 0.910100E-013
 0.910086E-013
 0.910073E-013
 0.910061E-013
 0.910048E-013
 0.910037E-013
 0.910026E-013
 0.910015E-013
 0.910006E-013
 0.909996E-013
 0.909988E-013
 0.909980E-013
 0.909973E-013
 0.909966E-013
 0.909960E-013
 0.909955E-013
 0.909951E-013
 0.909947E-013
 0.909944E-013
 0.909942E-013
 0.909941E-013
 0.909940E-013
 0.909940E-013
 0.909941E-013
 0.909942E-013
 0.909944E-013
 0.909947E-013
 0.909951E-013
 0.909955E-013
 0.909960E-013
 0.909966E-013
 0.909973E-013
 0.909980E-013
 0.909988E-013
 0.909997E-013
 0.910006E-013
 0.910015E-013
 0.910026E-013
 0.910037E-013
 0.910048E-013
 0.910061E-013
 0.910073E-013
 0.910086E-013
 0.910100E-013
 0.910114E-013
 0.910129E-013
 0.910144E-013
 0.910159E-013
 0.910175E-013
 0.910192E-013
 0.910208E-013
 0.910225E-013
 0.910242E-013
 0.910260E-013
 0.910278E-013
 0.910296E-013
 0.910314E-013
 0.910333E-013
 0.910352E-013
 0.910371E-013
 0.910390E-013
 0.910409E-013
 0.910429E-013
 0.910449E-013
 0.910469E-013
 0.910489E-013
 0.910509E-013
 0.910529E-013
 0.910550E-013
 0.910570E-013
 0.910591E-013
 0.910611E-013
 0.910632E-013
 0.910653E-013
 0.910674E-013
 0.910695E-013
 0.910716E-013
 0.910737E-013
 0.910759E-013
 0.910780E-013
 0.910799E-013
 0.910838E-013
 0.910750E-013
 0.911334E-013
 0.909085E-013
 0.915876E-013
 0.916940E-013
 0.908750E-013
 0.911524E-013
 0.910838E-013
 0.910976E-013
 0.910958E-013
 0.910965E-013
 0.910968E-013
 0.910971E-013
 0.910975E-013
 0.910978E-013
 0.910982E-013
 0.910985E-013
 0.910989E-013
 0.910992E-013
 0.910995E-013
 0.910999E-013
 0.911002E-013
 0.911006E-013
 0.911009E-013
 0.911012E-013
 0.911016E-013
 0.911019E-013
 0.911022E-013
 0.911026E-013
 0.911029E-013
 0.911032E-013
 0.911035E-013
 0.911038E-013
 0.911041E-013
 0.911045E-013
 0.911048E-013
 0.911051E-013
 0.911054E-013
 0.911057E-013
 0.911059E-013
 0.911062E-013
 0.911065E-013
 0.911068E-013
 0.911070E-013
 0.911073E-013
 0.911076E-013
 0.911078E-013
 0.911080E-013
 0.911083E-013
 0.911085E-013
 0.911087E-013
 0.911089E-013
 0.911091E-013
 0.911093E-013
 0.911095E-013
 0.911096E-013
 0.911098E-013
 0.911099E-013
 0.911100E-013
 0.911102E-013
 0.911103E-013
 0.911104E-013
 0.911104E-013
 0.911105E-013
 0.911106E-013
 0.911106E-013
 0.911106E-013
 0.911106E-013
 0.911106E-013
 0.911106E-013
 0.911106E-013
 0.911106E-013
 0.911105E-013
 0.911104E-013
 0.911104E-013
 0.911103E-013
 0.911102E-013
 0.911100E-013
 0.911099E-013
 0.911098E-013
 0.911096E-013
 0.911095E-013
 0.911093E-013
 0.911091E-013
 0.911089E-013
 0.911087E-013
 0.911085E-013
 0.911083E-013
 0.911080E-013
 0.911078E-013
 0.911076E-013
 0.911073E-013
 0.911070E-013
 0.911068E-013
 0.911065E-013
 0.911062E-013
 0.911059E-013
 0.911057E-013
 0.911054E-013
 0.911051E-013
 0.911048E-013
 0.911045E-013
 0.911041E-013
 0.911038E-013
 0.911035E-013
 0.911032E-013
 0.911029E-013
 0.911026E-013
 0.911022E-013
 0.911019E-013
 0.911016E-013
 0.911012E-013
 0.911009E-013
 0.911006E-013
 0.911002E-013
 0.910999E-013
 0.910996E-013
 0.910992E-013
 0.910989E-013
 0.910985E-013
 0.910982E-013
 0.910978E-013
 0.910975E-013
 0.910971E-013
 0.910968E-013
 0.910965E-013
 0.910958E-013
 0.910976E-013
 0.910838E-013
 0.911524E-013
 0.908751E-013
 0.916940E-013
 0.917959E-013
 0.908349E-013
 0.911615E-013
 0.910799E-013
 0.910958E-013
 0.910932E-013
 0.910935E-013
 0.910934E-013
 0.910934E-013
 0.910933E-013
 0.910933E-013
 0.910932E-013
 0.910932E-013
 0.910931E-013
 0.910931E-013
 0.910930E-013
 0.910930E-013
 0.910929E-013
 0.910929E-013
 0.910928E-013
 0.910928E-013
 0.910928E-013
 0.910927E-013
 0.910927E-013
 0.910926E-013
 0.910926E-013
 0.910926E-013
 0.910925E-013
 0.910925E-013
 0.910924E-013
 0.910924E-013
 0.910924E-013
 0.910923E-013
 0.910923E-013
 0.910923E-013
 0.910922E-013
 0.910922E-013
 0.910922E-013
 0.910922E-013
 0.910921E-013
 0.910921E-013
 0.910921E-013
 0.910921E-013
 0.910921E-013
 0.910921E-013
 0.910920E-013
 0.910920E-013
 0.910920E-013
 0.910920E-013
 0.910920E-013
 0.910920E-013
 0.910920E-013
 0.910920E-013
 0.910920E-013
 0.910920E-013
 0.910920E-013
 0.910919E-013
 0.910919E-013
 0.910919E-013
 0.910919E-013
 0.910919E-013
 0.910919E-013
 0.910919E-013
 0.910919E-013
 0.910919E-013
 0.910919E-013
 0.910919E-013
 0.910919E-013
 0.910919E-013
 0.910919E-013
 0.910919E-013
 0.910919E-013
 0.910920E-013
 0.910920E-013
 0.910920E-013
 0.910920E-013
 0.910920E-013
 0.910920E-013
 0.910920E-013
 0.910920E-013
 0.910920E-013
 0.910920E-013
 0.910920E-013
 0.910921E-013
 0.910921E-013
 0.910921E-013
 0.910921E-013
 0.910921E-013
 0.910922E-013
 0.910922E-013
 0.910922E-013
 0.910922E-013
 0.910923E-013
 0.910923E-013
 0.910923E-013
 0.910923E-013
 0.910924E-013
 0.910924E-013
 0.910924E-013
 0.910925E-013
 0.910925E-013
 0.910926E-013
 0.910926E-013
 0.910926E-013
 0.910927E-013
 0.910927E-013
 0.910928E-013
 0.910928E-013
 0.910929E-013
 0.910929E-013
 0.910929E-013
 0.910930E-013
 0.910930E-013
 0.910931E-013
 0.910931E-013
 0.910932E-013
 0.910932E-013
 0.910933E-013
 0.910933E-013
 0.910934E-013
 0.910934E-013
 0.910935E-013
 0.910932E-013
 0.910958E-013
 0.910799E-013
 0.911615E-013
 0.908349E-013
 0.917959E-013
 0.918982E-013
 0.907959E-013
 0.911722E-013
 0.910780E-013
 0.910965E-013
 0.910935E-013
 0.910939E-013
 0.910939E-013
 0.910939E-013
 0.910939E-013
 0.910939E-013
 0.910939E-013
 0.910939E-013
 0.910939E-013
 0.910939E-013
 0.910939E-013
 0.910939E-013
 0.910939E-013
 0.910939E-013
 0.910939E-013
 0.910940E-013
 0.910940E-013
 0.910940E-013
 0.910940E-013
 0.910940E-013
 0.910940E-013
 0.910940E-013
 0.910940E-013
 0.910940E-013
 0.910940E-013
 0.910941E-013
 0.910941E-013
 0.910941E-013
 0.910941E-013
 0.910941E-013
 0.910941E-013
 0.910942E-013
 0.910942E-013
 0.910942E-013
 0.910942E-013
 0.910942E-013
 0.910942E-013
 0.910943E-013
 0.910943E-013
 0.910943E-013
 0.910943E-013
 0.910943E-013
 0.910944E-013
 0.910944E-013
 0.910944E-013
 0.910944E-013
 0.910944E-013
 0.910945E-013
 0.910945E-013
 0.910945E-013
 0.910945E-013
 0.910945E-013
 0.910945E-013
 0.910945E-013
 0.910946E-013
 0.910946E-013
 0.910946E-013
 0.910946E-013
 0.910946E-013
 0.910946E-013
 0.910946E-013
 0.910946E-013
 0.910946E-013
 0.910946E-013
 0.910945E-013
 0.910945E-013
 0.910945E-013
 0.910945E-013
 0.910945E-013
 0.910945E-013
 0.910945E-013
 0.910944E-013
 0.910944E-013
 0.910944E-013
 0.910944E-013
 0.910944E-013
 0.910944E-013
 0.910943E-013
 0.910943E-013
 0.910943E-013
 0.910943E-013
 0.910942E-013
 0.910942E-013
 0.910942E-013
 0.910942E-013
 0.910942E-013
 0.910942E-013
 0.910941E-013
 0.910941E-013
 0.910941E-013
 0.910941E-013
 0.910941E-013
 0.910941E-013
 0.910940E-013
 0.910940E-013
 0.910940E-013
 0.910940E-013
 0.910940E-013
 0.910940E-013
 0.910940E-013
 0.910940E-013
 0.910940E-013
 0.910940E-013
 0.910940E-013
 0.910939E-013
 0.910939E-013
 0.910939E-013
 0.910939E-013
 0.910939E-013
 0.910939E-013
 0.910939E-013
 0.910939E-013
 0.910939E-013
 0.910939E-013
 0.910939E-013
 0.910939E-013
 0.910939E-013
 0.910935E-013
 0.910965E-013
 0.910780E-013
 0.911721E-013
 0.907960E-013
 0.918982E-013
 0.920002E-013
 0.907569E-013
 0.911826E-013
 0.910758E-013
 0.910968E-013
 0.910934E-013
 0.910939E-013
 0.910938E-013
 0.910938E-013
 0.910938E-013
 0.910938E-013
 0.910938E-013
 0.910938E-013
 0.910938E-013
 0.910938E-013
 0.910938E-013
 0.910938E-013
 0.910938E-013
 0.910938E-013
 0.910938E-013
 0.910938E-013
 0.910938E-013
 0.910938E-013
 0.910938E-013
 0.910938E-013
 0.910938E-013
 0.910938E-013
 0.910939E-013
 0.910939E-013
 0.910939E-013
 0.910939E-013
 0.910939E-013
 0.910939E-013
 0.910939E-013
 0.910939E-013
 0.910939E-013
 0.910940E-013
 0.910940E-013
 0.910940E-013
 0.910940E-013
 0.910940E-013
 0.910940E-013
 0.910941E-013
 0.910941E-013
 0.910941E-013
 0.910941E-013
 0.910941E-013
 0.910942E-013
 0.910942E-013
 0.910942E-013
 0.910942E-013
 0.910942E-013
 0.910942E-013
 0.910943E-013
 0.910943E-013
 0.910943E-013
 0.910943E-013
 0.910943E-013
 0.910943E-013
 0.910943E-013
 0.910944E-013
 0.910944E-013
 0.910944E-013
 0.910944E-013
 0.910944E-013
 0.910944E-013
 0.910944E-013
 0.910944E-013
 0.910943E-013
 0.910943E-013
 0.910943E-013
 0.910943E-013
 0.910943E-013
 0.910943E-013
 0.910943E-013
 0.910943E-013
 0.910942E-013
 0.910942E-013
 0.910942E-013
 0.910942E-013
 0.910942E-013
 0.910941E-013
 0.910941E-013
 0.910941E-013
 0.910941E-013
 0.910941E-013
 0.910940E-013
 0.910940E-013
 0.910940E-013
 0.910940E-013
 0.910940E-013
 0.910940E-013
 0.910939E-013
 0.910939E-013
 0.910939E-013
 0.910939E-013
 0.910939E-013
 0.910939E-013
 0.910939E-013
 0.910939E-013
 0.910939E-013
 0.910939E-013
 0.910938E-013
 0.910938E-013
 0.910938E-013
 0.910938E-013
 0.910938E-013
 0.910938E-013
 0.910938E-013
 0.910938E-013
 0.910938E-013
 0.910938E-013
 0.910938E-013
 0.910938E-013
 0.910938E-013
 0.910938E-013
 0.910938E-013
 0.910938E-013
 0.910938E-013
 0.910938E-013
 0.910938E-013
 0.910939E-013
 0.910934E-013
 0.910968E-013
 0.910759E-013
 0.911825E-013
 0.907570E-013
 0.920001E-013
 0.921019E-013
 0.907180E-013
 0.911930E-013
 0.910737E-013
 0.910971E-013
 0.910934E-013
 0.910939E-013
 0.910938E-013
 0.910938E-013
 0.910938E-013
 0.910938E-013
 0.910938E-013
 0.910938E-013
 0.910938E-013
 0.910938E-013
 0.910938E-013
 0.910938E-013
 0.910938E-013
 0.910938E-013
 0.910938E-013
 0.910938E-013
 0.910938E-013
 0.910938E-013
 0.910939E-013
 0.910939E-013
 0.910939E-013
 0.910939E-013
 0.910939E-013
 0.910939E-013
 0.910939E-013
 0.910939E-013
 0.910939E-013
 0.910939E-013
 0.910940E-013
 0.910940E-013
 0.910940E-013
 0.910940E-013
 0.910940E-013
 0.910940E-013
 0.910941E-013
 0.910941E-013
 0.910941E-013
 0.910941E-013
 0.910942E-013
 0.910942E-013
 0.910942E-013
 0.910942E-013
 0.910943E-013
 0.910943E-013
 0.910943E-013
 0.910943E-013
 0.910943E-013
 0.910944E-013
 0.910944E-013
 0.910944E-013
 0.910944E-013
 0.910944E-013
 0.910945E-013
 0.910945E-013
 0.910945E-013
 0.910945E-013
 0.910945E-013
 0.910945E-013
 0.910945E-013
 0.910945E-013
 0.910945E-013
 0.910945E-013
 0.910945E-013
 0.910945E-013
 0.910945E-013
 0.910945E-013
 0.910944E-013
 0.910944E-013
 0.910944E-013
 0.910944E-013
 0.910944E-013
 0.910944E-013
 0.910943E-013
 0.910943E-013
 0.910943E-013
 0.910943E-013
 0.910942E-013
 0.910942E-013
 0.910942E-013
 0.910942E-013
 0.910941E-013
 0.910941E-013
 0.910941E-013
 0.910941E-013
 0.910941E-013
 0.910940E-013
 0.910940E-013
 0.910940E-013
 0.910940E-013
 0.910940E-013
 0.910939E-013
 0.910939E-013
 0.910939E-013
 0.910939E-013
 0.910939E-013
 0.910939E-013
 0.910939E-013
 0.910939E-013
 0.910939E-013
 0.910939E-013
 0.910939E-013
 0.910938E-013
 0.910938E-013
 0.910938E-013
 0.910938E-013
 0.910938E-013
 0.910938E-013
 0.910938E-013
 0.910938E-013
 0.910938E-013
 0.910938E-013
 0.910938E-013
 0.910938E-013
 0.910938E-013
 0.910938E-013
 0.910938E-013
 0.910939E-013
 0.910934E-013
 0.910971E-013
 0.910737E-013
 0.911929E-013
 0.907181E-013
 0.921018E-013
 0.922034E-013
 0.906793E-013
 0.912033E-013
 0.910716E-013
 0.910975E-013
 0.910933E-013
 0.910939E-013
 0.910938E-013
 0.910938E-013
 0.910938E-013
 0.910938E-013
 0.910938E-013
 0.910938E-013
 0.910938E-013
 0.910938E-013
 0.910938E-013
 0.910938E-013
 0.910938E-013
 0.910938E-013
 0.910938E-013
 0.910938E-013
 0.910938E-013
 0.910939E-013
 0.910939E-013
 0.910939E-013
 0.910939E-013
 0.910939E-013
 0.910939E-013
 0.910939E-013
 0.910939E-013
 0.910939E-013
 0.910939E-013
 0.910940E-013
 0.910940E-013
 0.910940E-013
 0.910940E-013
 0.910940E-013
 0.910941E-013
 0.910941E-013
 0.910941E-013
 0.910941E-013
 0.910942E-013
 0.910942E-013
 0.910942E-013
 0.910942E-013
 0.910943E-013
 0.910943E-013
 0.910943E-013
 0.910944E-013
 0.910944E-013
 0.910944E-013
 0.910944E-013
 0.910945E-013
 0.910945E-013
 0.910945E-013
 0.910945E-013
 0.910946E-013
 0.910946E-013
 0.910946E-013
 0.910946E-013
 0.910946E-013
 0.910946E-013
 0.910946E-013
 0.910946E-013
 0.910946E-013
 0.910946E-013
 0.910946E-013
 0.910946E-013
 0.910946E-013
 0.910946E-013
 0.910946E-013
 0.910946E-013
 0.910945E-013
 0.910945E-013
 0.910945E-013
 0.910945E-013
 0.910944E-013
 0.910944E-013
 0.910944E-013
 0.910944E-013
 0.910943E-013
 0.910943E-013
 0.910943E-013
 0.910943E-013
 0.910942E-013
 0.910942E-013
 0.910942E-013
 0.910941E-013
 0.910941E-013
 0.910941E-013
 0.910941E-013
 0.910940E-013
 0.910940E-013
 0.910940E-013
 0.910940E-013
 0.910940E-013
 0.910940E-013
 0.910939E-013
 0.910939E-013
 0.910939E-013
 0.910939E-013
 0.910939E-013
 0.910939E-013
 0.910939E-013
 0.910939E-013
 0.910939E-013
 0.910939E-013
 0.910938E-013
 0.910938E-013
 0.910938E-013
 0.910938E-013
 0.910938E-013
 0.910938E-013
 0.910938E-013
 0.910938E-013
 0.910938E-013
 0.910938E-013
 0.910938E-013
 0.910938E-013
 0.910938E-013
 0.910938E-013
 0.910939E-013
 0.910933E-013
 0.910975E-013
 0.910716E-013
 0.912033E-013
 0.906793E-013
 0.922033E-013
 0.923046E-013
 0.906406E-013
 0.912137E-013
 0.910695E-013
 0.910978E-013
 0.910933E-013
 0.910939E-013
 0.910938E-013
 0.910938E-013
 0.910938E-013
 0.910938E-013
 0.910938E-013
 0.910938E-013
 0.910938E-013
 0.910938E-013
 0.910938E-013
 0.910938E-013
 0.910938E-013
 0.910938E-013
 0.910938E-013
 0.910938E-013
 0.910939E-013
 0.910939E-013
 0.910939E-013
 0.910939E-013
 0.910939E-013
 0.910939E-013
 0.910939E-013
 0.910939E-013
 0.910939E-013
 0.910940E-013
 0.910940E-013
 0.910940E-013
 0.910940E-013
 0.910940E-013
 0.910941E-013
 0.910941E-013
 0.910941E-013
 0.910941E-013
 0.910942E-013
 0.910942E-013
 0.910942E-013
 0.910943E-013
 0.910943E-013
 0.910943E-013
 0.910944E-013
 0.910944E-013
 0.910944E-013
 0.910945E-013