# vtk DataFile Version 3.0
Solution data
ASCII
DATASET STRUCTURED_GRID
DIMENSIONS 128 128 1
POINTS 16384  double
      0.000004      0.000004      0.000000
      0.000012      0.000004      0.000000
      0.000020      0.000004      0.000000
      0.000027      0.000004      0.000000
      0.000035      0.000004      0.000000
      0.000043      0.000004      0.000000
      0.000051      0.000004      0.000000
      0.000059      0.000004      0.000000
      0.000066      0.000004      0.000000
      0.000074      0.000004      0.000000
      0.000082      0.000004      0.000000
      0.000090      0.000004      0.000000
      0.000098      0.000004      0.000000
      0.000105      0.000004      0.000000
      0.000113      0.000004      0.000000
      0.000121      0.000004      0.000000
      0.000129      0.000004      0.000000
      0.000137      0.000004      0.000000
      0.000145      0.000004      0.000000
      0.000152      0.000004      0.000000
      0.000160      0.000004      0.000000
      0.000168      0.000004      0.000000
      0.000176      0.000004      0.000000
      0.000184      0.000004      0.000000
      0.000191      0.000004      0.000000
      0.000199      0.000004      0.000000
      0.000207      0.000004      0.000000
      0.000215      0.000004      0.000000
      0.000223      0.000004      0.000000
      0.000230      0.000004      0.000000
      0.000238      0.000004      0.000000
      0.000246      0.000004      0.000000
      0.000254      0.000004      0.000000
      0.000262      0.000004      0.000000
      0.000270      0.000004      0.000000
      0.000277      0.000004      0.000000
      0.000285      0.000004      0.000000
      0.000293      0.000004      0.000000
      0.000301      0.000004      0.000000
      0.000309      0.000004      0.000000
      0.000316      0.000004      0.000000
      0.000324      0.000004      0.000000
      0.000332      0.000004      0.000000
      0.000340      0.000004      0.000000
      0.000348      0.000004      0.000000
      0.000355      0.000004      0.000000
      0.000363      0.000004      0.000000
      0.000371      0.000004      0.000000
      0.000379      0.000004      0.000000
      0.000387      0.000004      0.000000
      0.000395      0.000004      0.000000
      0.000402      0.000004      0.000000
      0.000410      0.000004      0.000000
      0.000418      0.000004      0.000000
      0.000426      0.000004      0.000000
      0.000434      0.000004      0.000000
      0.000441      0.000004      0.000000
      0.000449      0.000004      0.000000
      0.000457      0.000004      0.000000
      0.000465      0.000004      0.000000
      0.000473      0.000004      0.000000
      0.000480      0.000004      0.000000
      0.000488      0.000004      0.000000
      0.000496      0.000004      0.000000
      0.000504      0.000004      0.000000
      0.000512      0.000004      0.000000
      0.000520      0.000004      0.000000
      0.000527      0.000004      0.000000
      0.000535      0.000004      0.000000
      0.000543      0.000004      0.000000
      0.000551      0.000004      0.000000
      0.000559      0.000004      0.000000
      0.000566      0.000004      0.000000
      0.000574      0.000004      0.000000
      0.000582      0.000004      0.000000
      0.000590      0.000004      0.000000
      0.000598      0.000004      0.000000
      0.000605      0.000004      0.000000
      0.000613      0.000004      0.000000
      0.000621      0.000004      0.000000
      0.000629      0.000004      0.000000
      0.000637      0.000004      0.000000
      0.000645      0.000004      0.000000
      0.000652      0.000004      0.000000
      0.000660      0.000004      0.000000
      0.000668      0.000004      0.000000
      0.000676      0.000004      0.000000
      0.000684      0.000004      0.000000
      0.000691      0.000004      0.000000
      0.000699      0.000004      0.000000
      0.000707      0.000004      0.000000
      0.000715      0.000004      0.000000
      0.000723      0.000004      0.000000
      0.000730      0.000004      0.000000
      0.000738      0.000004      0.000000
      0.000746      0.000004      0.000000
      0.000754      0.000004      0.000000
      0.000762      0.000004      0.000000
      0.000770      0.000004      0.000000
      0.000777      0.000004      0.000000
      0.000785      0.000004      0.000000
      0.000793      0.000004      0.000000
      0.000801      0.000004      0.000000
      0.000809      0.000004      0.000000
      0.000816      0.000004      0.000000
      0.000824      0.000004      0.000000
      0.000832      0.000004      0.000000
      0.000840      0.000004      0.000000
      0.000848      0.000004      0.000000
      0.000855      0.000004      0.000000
      0.000863      0.000004      0.000000
      0.000871      0.000004      0.000000
      0.000879      0.000004      0.000000
      0.000887      0.000004      0.000000
      0.000895      0.000004      0.000000
      0.000902      0.000004      0.000000
      0.000910      0.000004      0.000000
      0.000918      0.000004      0.000000
      0.000926      0.000004      0.000000
      0.000934      0.000004      0.000000
      0.000941      0.000004      0.000000
      0.000949      0.000004      0.000000
      0.000957      0.000004      0.000000
      0.000965      0.000004      0.000000
      0.000973      0.000004      0.000000
      0.000980      0.000004      0.000000
      0.000988      0.000004      0.000000
      0.000996      0.000004      0.000000
      0.000004      0.000012      0.000000
      0.000012      0.000012      0.000000
      0.000020      0.000012      0.000000
      0.000027      0.000012      0.000000
      0.000035      0.000012      0.000000
      0.000043      0.000012      0.000000
      0.000051      0.000012      0.000000
      0.000059      0.000012      0.000000
      0.000066      0.000012      0.000000
      0.000074      0.000012      0.000000
      0.000082      0.000012      0.000000
      0.000090      0.000012      0.000000
      0.000098      0.000012      0.000000
      0.000105      0.000012      0.000000
      0.000113      0.000012      0.000000
      0.000121      0.000012      0.000000
      0.000129      0.000012      0.000000
      0.000137      0.000012      0.000000
      0.000145      0.000012      0.000000
      0.000152      0.000012      0.000000
      0.000160      0.000012      0.000000
      0.000168      0.000012      0.000000
      0.000176      0.000012      0.000000
      0.000184      0.000012      0.000000
      0.000191      0.000012      0.000000
      0.000199      0.000012      0.000000
      0.000207      0.000012      0.000000
      0.000215      0.000012      0.000000
      0.000223      0.000012      0.000000
      0.000230      0.000012      0.000000
      0.000238      0.000012      0.000000
      0.000246      0.000012      0.000000
      0.000254      0.000012      0.000000
      0.000262      0.000012      0.000000
      0.000270      0.000012      0.000000
      0.000277      0.000012      0.000000
      0.000285      0.000012      0.000000
      0.000293      0.000012      0.000000
      0.000301      0.000012      0.000000
      0.000309      0.000012      0.000000
      0.000316      0.000012      0.000000
      0.000324      0.000012      0.000000
      0.000332      0.000012      0.000000
      0.000340      0.000012      0.000000
      0.000348      0.000012      0.000000
      0.000355      0.000012      0.000000
      0.000363      0.000012      0.000000
      0.000371      0.000012      0.000000
      0.000379      0.000012      0.000000
      0.000387      0.000012      0.000000
      0.000395      0.000012      0.000000
      0.000402      0.000012      0.000000
      0.000410      0.000012      0.000000
      0.000418      0.000012      0.000000
      0.000426      0.000012      0.000000
      0.000434      0.000012      0.000000
      0.000441      0.000012      0.000000
      0.000449      0.000012      0.000000
      0.000457      0.000012      0.000000
      0.000465      0.000012      0.000000
      0.000473      0.000012      0.000000
      0.000480      0.000012      0.000000
      0.000488      0.000012      0.000000
      0.000496      0.000012      0.000000
      0.000504      0.000012      0.000000
      0.000512      0.000012      0.000000
      0.000520      0.000012      0.000000
      0.000527      0.000012      0.000000
      0.000535      0.000012      0.000000
      0.000543      0.000012      0.000000
      0.000551      0.000012      0.000000
      0.000559      0.000012      0.000000
      0.000566      0.000012      0.000000
      0.000574      0.000012      0.000000
      0.000582      0.000012      0.000000
      0.000590      0.000012      0.000000
      0.000598      0.000012      0.000000
      0.000605      0.000012      0.000000
      0.000613      0.000012      0.000000
      0.000621      0.000012      0.000000
      0.000629      0.000012      0.000000
      0.000637      0.000012      0.000000
      0.000645      0.000012      0.000000
      0.000652      0.000012      0.000000
      0.000660      0.000012      0.000000
      0.000668      0.000012      0.000000
      0.000676      0.000012      0.000000
      0.000684      0.000012      0.000000
      0.000691      0.000012      0.000000
      0.000699      0.000012      0.000000
      0.000707      0.000012      0.000000
      0.000715      0.000012      0.000000
      0.000723      0.000012      0.000000
      0.000730      0.000012      0.000000
      0.000738      0.000012      0.000000
      0.000746      0.000012      0.000000
      0.000754      0.000012      0.000000
      0.000762      0.000012      0.000000
      0.000770      0.000012      0.000000
      0.000777      0.000012      0.000000
      0.000785      0.000012      0.000000
[...]
POINT_DATA 16384
SCALARS rhoe double
LOOKUP_TABLE default
 0.915189E-013
 0.913128E-013
 0.915067E-013
 0.915883E-013
 0.916947E-013
 0.917963E-013
 0.918984E-013
 0.920001E-013
 0.921016E-013
 0.922028E-013
 0.923037E-013
 0.924044E-013
 0.925047E-013
 0.926047E-013
 0.927044E-013
 0.928037E-013
 0.929027E-013
 0.930012E-013
 0.930992E-013
 0.931968E-013
 0.932939E-013
 0.933904E-013
 0.934863E-013
 0.935816E-013
 0.936762E-013
 0.937700E-013
 0.938630E-013
 0.939551E-013
 0.940463E-013
 0.941364E-013
 0.942255E-013
 0.943134E-013
 0.944001E-013
 0.944855E-013
 0.945694E-013
 0.946519E-013
 0.947327E-013
 0.948119E-013
 0.948893E-013
 0.949648E-013
 0.950383E-013
 0.951098E-013
 0.951790E-013
 0.952460E-013
 0.953106E-013
 0.953727E-013
 0.954323E-013
 0.954891E-013
 0.955432E-013
 0.955944E-013
 0.956427E-013
 0.956879E-013
 0.957300E-013
 0.957688E-013
 0.958044E-013
 0.958366E-013
 0.958655E-013
 0.958908E-013
 0.959126E-013
 0.959309E-013
 0.959455E-013
 0.959565E-013
 0.959639E-013
 0.959675E-013
 0.959675E-013
 0.959638E-013
 0.959565E-013
 0.959455E-013
 0.959308E-013
 0.959126E-013
 0.958908E-013
 0.958654E-013
 0.958366E-013
 0.958044E-013
 0.957688E-013
 0.957299E-013
 0.956878E-013
 0.956426E-013
 0.955944E-013
 0.955431E-013
 0.954891E-013
 0.954322E-013
 0.953726E-013
 0.953105E-013
 0.952459E-013
 0.951789E-013
 0.951096E-013
 0.950382E-013
 0.949647E-013
 0.948891E-013
 0.948118E-013
 0.947326E-013
 0.946517E-013
 0.945693E-013
 0.944853E-013
 0.944000E-013
 0.943133E-013
 0.942254E-013
 0.941363E-013
 0.940461E-013
 0.939550E-013
 0.938628E-013
 0.937698E-013
 0.936760E-013
 0.935815E-013
 0.934862E-013
 0.933903E-013
 0.932938E-013
 0.931967E-013
 0.930991E-013
 0.930011E-013
 0.929025E-013
 0.928036E-013
 0.927043E-013
 0.926046E-013
 0.925046E-013
 0.924043E-013
 0.923036E-013
 0.922027E-013
 0.921015E-013
 0.920000E-013
 0.918983E-013
 0.917963E-013
 0.916947E-013
 0.915883E-013
 0.915067E-013
 0.913128E-013
 0.915188E-013
 0.913128E-013
 0.908876E-013
 0.909763E-013
 0.909040E-013
 0.908702E-013
 0.908292E-013
 0.907895E-013
 0.907497E-013
 0.907101E-013
 0.906706E-013
 0.906312E-013
 0.905919E-013
 0.905527E-013
 0.905137E-013
 0.904749E-013
 0.904361E-013
 0.903976E-013
 0.903592E-013
 0.903210E-013
 0.902830E-013
 0.902452E-013
 0.902077E-013
 0.901703E-013
 0.901333E-013
 0.900965E-013
 0.900600E-013
 0.900239E-013
 0.899881E-013
 0.899527E-013
 0.899176E-013
 0.898831E-013
 0.898489E-013
 0.898153E-013
 0.897822E-013
 0.897496E-013
 0.897176E-013
 0.896863E-013
 0.896556E-013
 0.896256E-013
 0.895963E-013
 0.895678E-013
 0.895401E-013
 0.895133E-013
 0.894873E-013
 0.894623E-013
 0.894383E-013
 0.894152E-013
 0.893932E-013
 0.893723E-013
 0.893525E-013
 0.893338E-013
 0.893163E-013
 0.893001E-013
 0.892850E-013
 0.892713E-013
 0.892588E-013
 0.892477E-013
 0.892379E-013
 0.892295E-013
 0.892224E-013
 0.892167E-013
 0.892125E-013
 0.892097E-013
 0.892082E-013
 0.892082E-013
 0.892097E-013
 0.892125E-013
 0.892168E-013
 0.892224E-013
 0.892295E-013
 0.892379E-013
 0.892477E-013
 0.892589E-013
 0.892713E-013
 0.892851E-013
 0.893001E-013
 0.893164E-013
 0.893339E-013
 0.893526E-013
 0.893724E-013
 0.893933E-013
 0.894153E-013
 0.894384E-013
 0.894624E-013
 0.894874E-013
 0.895134E-013
 0.895402E-013
 0.895679E-013
 0.895964E-013
 0.896257E-013
 0.896557E-013
 0.896864E-013
 0.897177E-013
 0.897497E-013
 0.897823E-013
 0.898154E-013
 0.898490E-013
 0.898832E-013
 0.899178E-013
 0.899528E-013
 0.899882E-013
 0.900240E-013
 0.900601E-013
 0.900966E-013
 0.901334E-013
 0.901704E-013
 0.902078E-013
 0.902453E-013
 0.902831E-013
 0.903211E-013
 0.903593E-013
 0.903977E-013
 0.904362E-013
 0.904749E-013
 0.905138E-013
 0.905528E-013
 0.905920E-013
 0.906312E-013
 0.906706E-013
 0.907102E-013
 0.907498E-013
 0.907896E-013
 0.908293E-013
 0.908703E-013
 0.909040E-013
 0.909763E-013
 0.908877E-013
 0.913128E-013
 0.915067E-013
 0.909763E-013
 0.911699E-013
 0.911351E-013
 0.911552E-013
 0.911646E-013
 0.911757E-013
 0.911866E-013
 0.911975E-013
 0.912083E-013
 0.912191E-013
 0.912298E-013
 0.912405E-013
 0.912512E-013
 0.912619E-013
 0.912725E-013
 0.912830E-013
 0.912935E-013
 0.913040E-013
 0.913144E-013
 0.913247E-013
 0.913350E-013
 0.913452E-013
 0.913553E-013
 0.913654E-013
 0.913753E-013
 0.913852E-013
 0.913950E-013
 0.914047E-013
 0.914142E-013
 0.914237E-013
 0.914330E-013
 0.914422E-013
 0.914513E-013
 0.914602E-013
 0.914689E-013
 0.914775E-013
 0.914859E-013
 0.914941E-013
 0.915021E-013
 0.915099E-013
 0.915174E-013
 0.915248E-013
 0.915318E-013
 0.915387E-013
 0.915452E-013
 0.915515E-013
 0.915576E-013
 0.915633E-013
 0.915687E-013
 0.915738E-013
 0.915786E-013
 0.915830E-013
 0.915871E-013
 0.915909E-013
 0.915943E-013
 0.915973E-013
 0.916000E-013
 0.916023E-013
 0.916042E-013
 0.916058E-013
 0.916069E-013
 0.916077E-013
 0.916081E-013
 0.916081E-013
 0.916077E-013
 0.916069E-013
 0.916058E-013
 0.916042E-013
 0.916023E-013
 0.916000E-013
 0.915973E-013
 0.915943E-013
 0.915909E-013
 0.915871E-013
 0.915830E-013
 0.915786E-013
 0.915738E-013
 0.915687E-013
 0.915633E-013
 0.915575E-013
 0.915515E-013
 0.915452E-013
 0.915387E-013
 0.915318E-013
 0.915247E-013
 0.915174E-013
 0.915098E-013
 0.915020E-013
 0.914940E-013
 0.914858E-013
 0.914775E-013
 0.914689E-013
 0.914602E-013
 0.914513E-013
 0.914422E-013
 0.914330E-013
 0.914237E-013
 0.914142E-013
 0.914046E-013
 0.913950E-013
 0.913852E-013
 0.913753E-013
 0.913653E-013
 0.913553E-013
 0.913451E-013
 0.913349E-013
 0.913247E-013
 0.913143E-013
 0.913039E-013
 0.912935E-013
 0.912830E-013
 0.912724E-013
 0.912618E-013
 0.912512E-013
 0.912405E-013
 0.912298E-013
 0.912191E-013
 0.912083E-013
 0.911975E-013
 0.911866E-013
 0.911757E-013
 0.911646E-013
 0.911551E-013
 0.911351E-013
 0.911699E-013
 0.909763E-013
 0.915067E-013
 0.915883E-013
 0.909040E-013
 0.911351E-013
 0.910736E-013
 0.910831E-013
 0.910789E-013
 0.910769E-013
 0.910746E-013
 0.910723E-013
 0.910700E-013
 0.910678E-013
 0.910655E-013
 0.910633E-013
 0.910610E-013
 0.910588E-013
 0.910566E-013
 0.910544E-013
 0.910522E-013
 0.910500E-013
 0.910478E-013
 0.910457E-013
 0.910435E-013
 0.910414E-013
 0.910393E-013
 0.910372E-013
 0.910351E-013
 0.910330E-013
 0.910310E-013
 0.910290E-013
 0.910270E-013
 0.910250E-013
 0.910231E-013
 0.910212E-013
 0.910193E-013
 0.910174E-013
 0.910156E-013
 0.910138E-013
 0.910121E-013
 0.910104E-013
 0.910087E-013
 0.910071E-013
 0.910056E-013
 0.910040E-013
 0.910026E-013
 0.910012E-013
 0.909998E-013
 0.909985E-013
 0.909973E-013
 0.909961E-013
 0.909950E-013
 0.909939E-013
 0.909929E-013
 0.909920E-013
 0.909912E-013
 0.909904E-013
 0.909897E-013
 0.909891E-013
 0.909885E-013
 0.909881E-013
 0.909877E-013
 0.909873E-013
 0.909871E-013
 0.909869E-013
 0.909869E-013
 0.909869E-013
 0.909869E-013
 0.909871E-013
 0.909873E-013
 0.909877E-013
 0.909881E-013
 0.909885E-013
 0.909891E-013
 0.909897E-013
 0.909904E-013
 0.909912E-013
 0.909920E-013
 0.909929E-013
 0.909939E-013
 0.909950E-013
 0.909961E-013
 0.909973E-013
 0.909985E-013
 0.909998E-013
 0.910012E-013
 0.910026E-013
 0.910041E-013
 0.910056E-013
 0.910071E-013
 0.910087E-013
 0.910104E-013
 0.910121E-013
 0.910138E-013
 0.910156E-013
 0.910174E-013
 0.910193E-013
 0.910212E-013
 0.910231E-013
 0.910250E-013
 0.910270E-013
 0.910290E-013
 0.910310E-013
 0.910330E-013
 0.910351E-013
 0.910372E-013
 0.910393E-013
 0.910414E-013
 0.910435E-013
 0.910457E-013
 0.910478E-013
 0.910500E-013
 0.910522E-013
 0.910544E-013
 0.910566E-013
 0.910588E-013
 0.910610E-013
 0.910633E-013
 0.910655E-013
 0.910678E-013
 0.910700E-013
 0.910723E-013
 0.910746E-013
 0.910769E-013
 0.910789E-013
 0.910831E-013
 0.910736E-013
 0.911351E-013
 0.909040E-013
 0.915883E-013
 0.916947E-013
 0.908702E-013
 0.911552E-013
 0.910831E-013
 0.910980E-013
 0.910960E-013
 0.910967E-013
 0.910971E-013
 0.910975E-013
 0.910978E-013
 0.910982E-013
 0.910986E-013
 0.910990E-013
 0.910994E-013
 0.910997E-013
 0.911001E-013
 0.911005E-013
 0.911009E-013
 0.911012E-013
 0.911016E-013
 0.911020E-013
 0.911023E-013
 0.911027E-013
 0.911031E-013
 0.911034E-013
 0.911038E-013
 0.911041E-013
 0.911045E-013
 0.911048E-013
 0.911052E-013
 0.911055E-013
 0.911058E-013
 0.911062E-013
 0.911065E-013
 0.911068E-013
 0.911071E-013
 0.911074E-013
 0.911077E-013
 0.911080E-013
 0.911083E-013
 0.911086E-013
 0.911089E-013
 0.911092E-013
 0.911094E-013
 0.911097E-013
 0.911099E-013
 0.911101E-013
 0.911104E-013
 0.911106E-013
 0.911108E-013
 0.911110E-013
 0.911111E-013
 0.911113E-013
 0.911115E-013
 0.911116E-013
 0.911117E-013
 0.911118E-013
 0.911119E-013
 0.911120E-013
 0.911121E-013
 0.911122E-013
 0.911122E-013
 0.911122E-013
 0.911122E-013
 0.911122E-013
 0.911122E-013
 0.911122E-013
 0.911122E-013
 0.911121E-013
 0.911120E-013
 0.911119E-013
 0.911118E-013
 0.911117E-013
 0.911116E-013
 0.911115E-013
 0.911113E-013
 0.911111E-013
 0.911110E-013
 0.911108E-013
 0.911106E-013
 0.911104E-013
 0.911101E-013
 0.911099E-013
 0.911097E-013
 0.911094E-013
 0.911092E-013
 0.911089E-013
 0.911086E-013
 0.911083E-013
 0.911080E-013
 0.911077E-013
 0.911074E-013
 0.911071E-013
 0.911068E-013
 0.911065E-013
 0.911062E-013
 0.911058E-013
 0.911055E-013
 0.911052E-013
 0.911048E-013
 0.911045E-013
 0.911041E-013
 0.911038E-013
 0.911034E-013
 0.911031E-013
 0.911027E-013
 0.911023E-013
 0.911020E-013
 0.911016E-013
 0.911012E-013
 0.911009E-013
 0.911005E-013
 0.911001E-013
 0.910997E-013
 0.910994E-013
 0.910990E-013
 0.910986E-013
 0.910982E-013
 0.910978E-013
 0.910975E-013
 0.910971E-013
 0.910967E-013
 0.910960E-013
 0.910980E-013
 0.910831E-013
 0.911551E-013
 0.908703E-013
 0.916947E-013
 0.917963E-013
 0.908292E-013
 0.911646E-013
 0.910789E-013
 0.910960E-013
 0.910931E-013
 0.910935E-013
 0.910934E-013
 0.910933E-013
 0.910933E-013
 0.910932E-013
 0.910931E-013
 0.910931E-013
 0.910930E-013
 0.910930E-013
 0.910929E-013
 0.910929E-013
 0.910928E-013
 0.910928E-013
 0.910927E-013
 0.910927E-013
 0.910926E-013
 0.910926E-013
 0.910925E-013
 0.910925E-013
 0.910924E-013
 0.910924E-013
 0.910923E-013
 0.910923E-013
 0.910923E-013
 0.910922E-013
 0.910922E-013
 0.910921E-013
 0.910921E-013
 0.910921E-013
 0.910920E-013
 0.910920E-013
 0.910920E-013
 0.910919E-013
 0.910919E-013
 0.910919E-013
 0.910919E-013
 0.910918E-013
 0.910918E-013
 0.910918E-013
 0.910918E-013
 0.910918E-013
 0.910917E-013
 0.910917E-013
 0.910917E-013
 0.910917E-013
 0.910917E-013
 0.910917E-013
 0.910917E-013
 0.910917E-013
 0.910916E-013
 0.910916E-013
 0.910916E-013
 0.910916E-013
 0.910916E-013
 0.910916E-013
 0.910916E-013
 0.910916E-013
 0.910916E-013
 0.910916E-013
 0.910916E-013
 0.910916E-013
 0.910916E-013
 0.910916E-013
 0.910916E-013
 0.910916E-013
 0.910916E-013
 0.910916E-013
 0.910917E-013
 0.910917E-013
 0.910917E-013
 0.910917E-013
 0.910917E-013
 0.910917E-013
 0.910917E-013
 0.910917E-013
 0.910918E-013
 0.910918E-013
 0.910918E-013
 0.910918E-013
 0.910918E-013
 0.910919E-013
 0.910919E-013
 0.910919E-013
 0.910919E-013
 0.910920E-013
 0.910920E-013
 0.910920E-013
 0.910921E-013
 0.910921E-013
 0.910921E-013
 0.910922E-013
 0.910922E-013
 0.910923E-013
 0.910923E-013
 0.910923E-013
 0.910924E-013
 0.910924E-013
 0.910925E-013
 0.910925E-013
 0.910926E-013
 0.910926E-013
 0.910927E-013
 0.910927E-013
 0.910928E-013
 0.910928E-013
 0.910929E-013
 0.910929E-013
 0.910930E-013
 0.910930E-013
 0.910931E-013
 0.910932E-013
 0.910932E-013
 0.910933E-013
 0.910933E-013
 0.910934E-013
 0.910935E-013
 0.910931E-013
 0.910960E-013
 0.910789E-013
 0.911646E-013
 0.908293E-013
 0.917963E-013
 0.918984E-013
 0.907895E-013
 0.911757E-013
 0.910769E-013
 0.910967E-013
 0.910935E-013
 0.910939E-013
 0.910939E-013
 0.910939E-013
 0.910939E-013
 0.910939E-013
 0.910939E-013
 0.910939E-013
 0.910939E-013
 0.910939E-013
 0.910939E-013
 0.910939E-013
 0.910939E-013
 0.910940E-013
 0.910940E-013
 0.910940E-013
 0.910940E-013
 0.910940E-013
 0.910940E-013
 0.910940E-013
 0.910940E-013
 0.910940E-013
 0.910940E-013
 0.910941E-013
 0.910941E-013
 0.910941E-013
 0.910941E-013
 0.910941E-013
 0.910941E-013
 0.910941E-013
 0.910942E-013
 0.910942E-013
 0.910942E-013
 0.910942E-013
 0.910942E-013
 0.910942E-013
 0.910943E-013
 0.910943E-013
 0.910943E-013
 0.910943E-013
 0.910943E-013
 0.910944E-013
 0.910944E-013
 0.910944E-013
 0.910944E-013
 0.910944E-013
 0.910945E-013
 0.910945E-013
 0.910945E-013
 0.910945E-013
 0.910945E-013
 0.910945E-013
 0.910945E-013
 0.910946E-013
 0.910946E-013
 0.910946E-013
 0.910946E-013
 0.910946E-013
 0.910946E-013
 0.910946E-013
 0.910946E-013
 0.910946E-013
 0.910946E-013
 0.910946E-013
 0.910946E-013
 0.910945E-013
 0.910945E-013
 0.910945E-013
 0.910945E-013
 0.910945E-013
 0.910945E-013
 0.910945E-013
 0.910944E-013
 0.910944E-013
 0.910944E-013
 0.910944E-013
 0.910944E-013
 0.910943E-013
 0.910943E-013
 0.910943E-013
 0.910943E-013
 0.910943E-013
 0.910943E-013
 0.910942E-013
 0.910942E-013
 0.910942E-013
 0.910942E-013
 0.910942E-013
 0.910941E-013
 0.910941E-013
 0.910941E-013
 0.910941E-013
 0.910941E-013
 0.910941E-013
 0.910941E-013
 0.910940E-013
 0.910940E-013
 0.910940E-013
 0.910940E-013
 0.910940E-013
 0.910940E-013
 0.910940E-013
 0.910940E-013
 0.910940E-013
 0.910940E-013
 0.910940E-013
 0.910939E-013
 0.910939E-013
 0.910939E-013
 0.910939E-013
 0.910939E-013
 0.910939E-013
 0.910939E-013
 0.910939E-013
 0.910939E-013
 0.910939E-013
 0.910939E-013
 0.910935E-013
 0.910967E-013
 0.910769E-013
 0.911757E-013
 0.907896E-013
 0.918983E-013
 0.920001E-013
 0.907497E-013
 0.911866E-013
 0.910746E-013
 0.910971E-013
 0.910934E-013
 0.910939E-013
 0.910938E-013
 0.910938E-013
 0.910938E-013
 0.910938E-013
 0.910938E-013
 0.910938E-013
 0.910938E-013
 0.910938E-013
 0.910938E-013
 0.910938E-013
 0.910938E-013
 0.910938E-013
 0.910938E-013
 0.910938E-013
 0.910938E-013
 0.910938E-013
 0.910938E-013
 0.910938E-013
 0.910938E-013
 0.910938E-013
 0.910938E-013
 0.910939E-013
 0.910939E-013
 0.910939E-013
 0.910939E-013
 0.910939E-013
 0.910939E-013
 0.910939E-013
 0.910939E-013
 0.910939E-013
 0.910940E-013
 0.910940E-013
 0.910940E-013
 0.910940E-013
 0.910940E-013
 0.910940E-013
 0.910941E-013
 0.910941E-013
 0.910941E-013
 0.910941E-013
 0.910941E-013
 0.910941E-013
 0.910942E-013
 0.910942E-013
 0.910942E-013
 0.910942E-013
 0.910942E-013
 0.910942E-013
 0.910943E-013
 0.910943E-013
 0.910943E-013
 0.910943E-013
 0.910943E-013
 0.910943E-013
 0.910943E-013
 0.910943E-013
 0.910943E-013
 0.910943E-013
 0.910943E-013
 0.910943E-013
 0.910943E-013
 0.910943E-013
 0.910943E-013
 0.910943E-013
 0.910943E-013
 0.910943E-013
 0.910942E-013
 0.910942E-013
 0.910942E-013
 0.910942E-013
 0.910942E-013
 0.910942E-013
 0.910941E-013
 0.910941E-013
 0.910941E-013
 0.910941E-013
 0.910941E-013
 0.910941E-013
 0.910940E-013
 0.910940E-013
 0.910940E-013
 0.910940E-013
 0.910940E-013
 0.910940E-013
 0.910939E-013
 0.910939E-013
 0.910939E-013
 0.910939E-013
 0.910939E-013
 0.910939E-013
 0.910939E-013
 0.910939E-013
 0.910939E-013
 0.910939E-013
 0.910938E-013
 0.910938E-013
 0.910938E-013
 0.910938E-013
 0.910938E-013
 0.910938E-013
 0.910938E-013
 0.910938E-013
 0.910938E-013
 0.910938E-013
 0.910938E-013
 0.910938E-013
 0.910938E-013
 0.910938E-013
 0.910938E-013
 0.910938E-013
 0.910938E-013
 0.910938E-013
 0.910938E-013
 0.910938E-013
 0.910939E-013
 0.910934E-013
 0.910971E-013
 0.910746E-013
 0.911866E-013
 0.907498E-013
 0.920000E-013
 0.921016E-013
 0.907101E-013
 0.911975E-013
 0.910723E-013
 0.910975E-013
 0.910933E-013
 0.910939E-013
 0.910938E-013
 0.910938E-013
 0.910938E-013
 0.910938E-013
 0.910938E-013
 0.910938E-013
 0.910938E-013
 0.910938E-013
 0.910938E-013
 0.910938E-013
 0.910938E-013
 0.910938E-013
 0.910938E-013
 0.910938E-013
 0.910938E-013
 0.910938E-013
 0.910939E-013
 0.910939E-013
 0.910939E-013
 0.910939E-013
 0.910939E-013
 0.910939E-013
 0.910939E-013
 0.910939E-013
 0.910939E-013
 0.910939E-013
 0.910939E-013
 0.910940E-013
 0.910940E-013
 0.910940E-013
 0.910940E-013
 0.910940E-013
 0.910941E-013
 0.910941E-013
 0.910941E-013
 0.910941E-013
 0.910941E-013
 0.910942E-013
 0.910942E-013
 0.910942E-013
 0.910942E-013
 0.910942E-013
 0.910943E-013
 0.910943E-013
 0.910943E-013
 0.910943E-013
 0.910944E-013
 0.910944E-013
 0.910944E-013
 0.910944E-013
 0.910944E-013
 0.910944E-013
 0.910944E-013
 0.910944E-013
 0.910945E-013
 0.910945E-013
 0.910945E-013
 0.910945E-013
 0.910945E-013
 0.910945E-013
 0.910944E-013
 0.910944E-013
 0.910944E-013
 0.910944E-013
 0.910944E-013
 0.910944E-013
 0.910944E-013
 0.910944E-013
 0.910943E-013
 0.910943E-013
 0.910943E-013
 0.910943E-013
 0.910943E-013
 0.910942E-013
 0.910942E-013
 0.910942E-013
 0.910942E-013
 0.910941E-013
 0.910941E-013
 0.910941E-013
 0.910941E-013
 0.910941E-013
 0.910940E-013
 0.910940E-013
 0.910940E-013
 0.910940E-013
 0.910940E-013
 0.910940E-013
 0.910939E-013
 0.910939E-013
 0.910939E-013
 0.910939E-013
 0.910939E-013
 0.910939E-013
 0.910939E-013
 0.910939E-013
 0.910939E-013
 0.910939E-013
 0.910939E-013
 0.910938E-013
 0.910938E-013
 0.910938E-013
 0.910938E-013
 0.910938E-013
 0.910938E-013
 0.910938E-013
 0.910938E-013
 0.910938E-013
 0.910938E-013
 0.910938E-013
 0.910938E-013
 0.910938E-013
 0.910938E-013
 0.910938E-013
 0.910939E-013
 0.910933E-013
 0.910975E-013
 0.910723E-013
 0.911975E-013
 0.907102E-013
 0.921015E-013
 0.922028E-013
 0.906706E-013
 0.912083E-013
 0.910700E-013
 0.910978E-013
 0.910933E-013
 0.910939E-013
 0.910938E-013
 0.910938E-013
 0.910938E-013
 0.910938E-013
 0.910938E-013
 0.910938E-013
 0.910938E-013
 0.910938E-013
 0.910938E-013
 0.910938E-013
 0.910938E-013
 0.910938E-013
 0.910938E-013
 0.910938E-013
 0.910938E-013
 0.910938E-013
 0.910939E-013
 0.910939E-013
 0.910939E-013
 0.910939E-013
 0.910939E-013
 0.910939E-013
 0.910939E-013
 0.910939E-013
 0.910939E-013
 0.910940E-013
 0.910940E-013
 0.910940E-013
 0.910940E-013
 0.910940E-013
 0.910940E-013
 0.910941E-013
 0.910941E-013
 0.910941E-013
 0.910941E-013
 0.910942E-013
 0.910942E-013
 0.910942E-013
 0.910942E-013
 0.910943E-013
 0.910943E-013
 0.910943E-013
 0.910944E-013
 0.910944E-013
 0.910944E-013
 0.910944E-013
 0.910944E-013
 0.910945E-013
 0.910945E-013
 0.910945E-013
 0.910945E-013
 0.910945E-013
 0.910945E-013
 0.910946E-013
 0.910946E-013
 0.910946E-013
 0.910946E-013
 0.910946E-013
 0.910946E-013
 0.910946E-013
 0.910946E-013
 0.910946E-013
 0.910945E-013
 0.910945E-013
 0.910945E-013
 0.910945E-013
 0.910945E-013
 0.910945E-013
 0.910944E-013
 0.910944E-013
 0.910944E-013
 0.910944E-013
 0.910943E-013
 0.910943E-013
 0.910943E-013
 0.910943E-013
 0.910942E-013
 0.910942E-013
 0.910942E-013
 0.910941E-013
 0.910941E-013
 0.910941E-013
 0.910941E-013
 0.910941E-013
 0.910940E-013
 0.910940E-013
 0.910940E-013
 0.910940E-013
 0.910940E-013
 0.910939E-013
 0.910939E-013
 0.910939E-013
 0.910939E-013
 0.910939E-013
 0.910939E-013
 0.910939E-013
 0.910939E-013
 0.910939E-013
 0.910939E-013
 0.910939E-013
 0.910938E-013
 0.910938E-013
 0.910938E-013
 0.910938E-013
 0.910938E-013
 0.910938E-013
 0.910938E-013
 0.910938E-013
 0.910938E-013
 0.910938E-013
 0.910938E-013
 0.910938E-013
 0.910938E-013
 0.910938E-013
 0.910939E-013
 0.910933E-013
 0.910978E-013
 0.910700E-013
 0.912083E-013
 0.906707E-013
 0.922027E-013
 0.923037E-013
 0.906312E-013
 0.912191E-013
 0.910678E-013
 0.910982E-013
 0.910932E-013
 0.910939E-013
 0.910938E-013
 0.910938E-013
 0.910938E-013
 0.910938E-013
 0.910938E-013
 0.910938E-013
 0.910938E-013
 0.910938E-013
 0.910938E-013
 0.910938E-013
 0.910938E-013
 0.910938E-013
 0.910938E-013
 0.910938E-013
 0.910939E-013
 0.910939E-013
 0.910939E-013
 0.910939E-013
 0.910939E-013
 0.910939E-013
 0.910939E-013
 0.910939E-013
 0.910939E-013
 0.910939E-013
 0.910940E-013
 0.910940E-013
 0.910940E-013
 0.910940E-013
 0.910940E-013
 0.910941E-013
 0.910941E-013
 0.910941E-013
 0.910941E-013
 0.910942E-013
 0.910942E-013
 0.910942E-013
 0.910943E-013
 0.910943E-013
 0.910943E-013
 0.910944E-013
 0.910944E-013
 0.910944E-013