# vtk DataFile Version 3.0
Solution data
ASCII
DATASET STRUCTURED_GRID
DIMENSIONS 128 128 1
POINTS 16384  double
      0.000004      0.000004      0.000000
      0.000012      0.000004      0.000000
      0.000020      0.000004      0.000000
      0.000027      0.000004      0.000000
      0.000035      0.000004      0.000000
      0.000043      0.000004      0.000000
      0.000051      0.000004      0.000000
      0.000059      0.000004      0.000000
      0.000066      0.000004      0.000000
      0.000074      0.000004      0.000000
      0.000082      0.000004      0.000000
      0.000090      0.000004      0.000000
      0.000098      0.000004      0.000000
      0.000105      0.000004      0.000000
      0.000113      0.000004      0.000000
      0.000121      0.000004      0.000000
      0.000129      0.000004      0.000000
      0.000137      0.000004      0.000000
      0.000145      0.000004      0.000000
      0.000152      0.000004      0.000000
      0.000160      0.000004      0.000000
      0.000168      0.000004      0.000000
      0.000176      0.000004      0.000000
      0.000184      0.000004      0.000000
      0.000191      0.000004      0.000000
      0.000199      0.000004      0.000000
      0.000207      0.000004      0.000000
      0.000215      0.000004      0.000000
      0.000223      0.000004      0.000000
      0.000230      0.000004      0.000000
      0.000238      0.000004      0.000000
      0.000246      0.000004      0.000000
      0.000254      0.000004      0.000000
      0.000262      0.000004      0.000000
      0.000270      0.000004      0.000000
      0.000277      0.000004      0.000000
      0.000285      0.000004      0.000000
      0.000293      0.000004      0.000000
      0.000301      0.000004      0.000000
      0.000309      0.000004      0.000000
      0.000316      0.000004      0.000000
      0.000324      0.000004      0.000000
      0.000332      0.000004      0.000000
      0.000340      0.000004      0.000000
      0.000348      0.000004      0.000000
      0.000355      0.000004      0.000000
      0.000363      0.000004      0.000000
      0.000371      0.000004      0.000000
      0.000379      0.000004      0.000000
      0.000387      0.000004      0.000000
      0.000395      0.000004      0.000000
      0.000402      0.000004      0.000000
      0.000410      0.000004      0.000000
      0.000418      0.000004      0.000000
      0.000426      0.000004      0.000000
      0.000434      0.000004      0.000000
      0.000441      0.000004      0.000000
      0.000449      0.000004      0.000000
      0.000457      0.000004      0.000000
      0.000465      0.000004      0.000000
      0.000473      0.000004      0.000000
      0.000480      0.000004      0.000000
      0.000488      0.000004      0.000000
      0.000496      0.000004      0.000000
      0.000504      0.000004      0.000000
      0.000512      0.000004      0.000000
      0.000520      0.000004      0.000000
      0.000527      0.000004      0.000000
      0.000535      0.000004      0.000000
      0.000543      0.000004      0.000000
      0.000551      0.000004      0.000000
      0.000559      0.000004      0.000000
      0.000566      0.000004      0.000000
      0.000574      0.000004      0.000000
      0.000582      0.000004      0.000000
      0.000590      0.000004      0.000000
      0.000598      0.000004      0.000000
      0.000605      0.000004      0.000000
      0.000613      0.000004      0.000000
      0.000621      0.000004      0.000000
      0.000629      0.000004      0.000000
      0.000637      0.000004      0.000000
      0.000645      0.000004      0.000000
      0.000652      0.000004      0.000000
      0.000660      0.000004      0.000000
      0.000668      0.000004      0.000000
      0.000676      0.000004      0.000000
      0.000684      0.000004      0.000000
      0.000691      0.000004      0.000000
      0.000699      0.000004      0.000000
      0.000707      0.000004      0.000000
      0.000715      0.000004      0.000000
      0.000723      0.000004      0.000000
      0.000730      0.000004      0.000000
      0.000738      0.000004      0.000000
      0.000746      0.000004      0.000000
      0.000754      0.000004      0.000000
      0.000762      0.000004      0.000000
      0.000770      0.000004      0.000000
      0.000777      0.000004      0.000000
      0.000785      0.000004      0.000000
      0.000793      0.000004      0.000000
      0.000801      0.000004      0.000000
      0.000809      0.000004      0.000000
      0.000816      0.000004      0.000000
      0.000824      0.000004      0.000000
      0.000832      0.000004      0.000000
      0.000840      0.000004      0.000000
      0.000848      0.000004      0.000000
      0.000855      0.000004      0.000000
      0.000863      0.000004      0.000000
      0.000871      0.000004      0.000000
      0.000879      0.000004      0.000000
      0.000887      0.000004      0.000000
      0.000895      0.000004      0.000000
      0.000902      0.000004      0.000000
      0.000910      0.000004      0.000000
      0.000918      0.000004      0.000000
      0.000926      0.000004      0.000000
      0.000934      0.000004      0.000000
      0.000941      0.000004      0.000000
      0.000949      0.000004      0.000000
      0.000957      0.000004      0.000000
      0.000965      0.000004      0.000000
      0.000973      0.000004      0.000000
      0.000980      0.000004      0.000000
      0.000988      0.000004      0.000000
      0.000996      0.000004      0.000000
      0.000004      0.000012      0.000000
      0.000012      0.000012      0.000000
      0.000020      0.000012      0.000000
      0.000027      0.000012      0.000000
      0.000035      0.000012      0.000000
      0.000043      0.000012      0.000000
      0.000051      0.000012      0.000000
      0.000059      0.000012      0.000000
      0.000066      0.000012      0.000000
      0.000074      0.000012      0.000000
      0.000082      0.000012      0.000000
      0.000090      0.000012      0.000000
      0.000098      0.000012      0.000000
      0.000105      0.000012      0.000000
      0.000113      0.000012      0.000000
      0.000121      0.000012      0.000000
      0.000129      0.000012      0.000000
      0.000137      0.000012      0.000000
      0.000145      0.000012      0.000000
      0.000152      0.000012      0.000000
      0.000160      0.000012      0.000000
      0.000168      0.000012      0.000000
      0.000176      0.000012      0.000000
      0.000184      0.000012      0.000000
      0.000191      0.000012      0.000000
      0.000199      0.000012      0.000000
      0.000207      0.000012      0.000000
      0.000215      0.000012      0.000000
      0.000223      0.000012      0.000000
      0.000230      0.000012      0.000000
      0.000238      0.000012      0.000000
      0.000246      0.000012      0.000000
      0.000254      0.000012      0.000000
      0.000262      0.000012      0.000000
      0.000270      0.000012      0.000000
      0.000277      0.000012      0.000000
      0.000285      0.000012      0.000000
      0.000293      0.000012      0.000000
      0.000301      0.000012      0.000000
      0.000309      0.000012      0.000000
      0.000316      0.000012      0.000000
      0.000324      0.000012      0.000000
      0.000332      0.000012      0.000000
      0.000340      0.000012      0.000000
      0.000348      0.000012      0.000000
      0.000355      0.000012      0.000000
      0.000363      0.000012      0.000000
      0.000371      0.000012      0.000000
      0.000379      0.000012      0.000000
      0.000387      0.000012      0.000000
      0.000395      0.000012      0.000000
      0.000402      0.000012      0.000000
      0.000410      0.000012      0.000000
      0.000418      0.000012      0.000000
      0.000426      0.000012      0.000000
      0.000434      0.000012      0.000000
      0.000441      0.000012      0.000000
      0.000449      0.000012      0.000000
      0.000457      0.000012      0.000000
      0.000465      0.000012      0.000000
      0.000473      0.000012      0.000000
      0.000480      0.000012      0.000000
      0.000488      0.000012      0.000000
      0.000496      0.000012      0.000000
      0.000504      0.000012      0.000000
      0.000512      0.000012      0.000000
      0.000520      0.000012      0.000000
      0.000527      0.000012      0.000000
      0.000535      0.000012      0.000000
      0.000543      0.000012      0.000000
      0.000551      0.000012      0.000000
      0.000559      0.000012      0.000000
      0.000566      0.000012      0.000000
      0.000574      0.000012      0.000000
      0.000582      0.000012      0.000000
      0.000590      0.000012      0.000000
      0.000598      0.000012      0.000000
      0.000605      0.000012      0.000000
      0.000613      0.000012      0.000000
      0.000621      0.000012      0.000000
      0.000629      0.000012      0.000000
      0.000637      0.000012      0.000000
      0.000645      0.000012      0.000000
      0.000652      0.000012      0.000000
      0.000660      0.000012      0.000000
      0.000668      0.000012      0.000000
      0.000676      0.000012      0.000000
      0.000684      0.000012      0.000000
      0.000691      0.000012      0.000000
      0.000699      0.000012      0.000000
      0.000707      0.000012      0.000000
      0.000715      0.000012      0.000000
      0.000723      0.000012      0.000000
      0.000730      0.000012      0.000000
      0.000738      0.000012      0.000000
      0.000746      0.000012      0.000000
      0.000754      0.000012      0.000000
      0.000762      0.000012      0.000000
      0.000770      0.000012      0.000000
      0.000777      0.000012      0.000000
      0.000785      0.000012      0.000000
[...]
POINT_DATA 16384
SCALARS rhoe double
LOOKUP_TABLE default
 0.916497E-013
 0.912343E-013
 0.915457E-013
 0.915432E-013
 0.916565E-013
 0.917325E-013
 0.918187E-013
 0.919020E-013
 0.919857E-013
 0.920690E-013
 0.921521E-013
 0.922349E-013
 0.923174E-013
 0.923996E-013
 0.924815E-013
 0.925630E-013
 0.926442E-013
 0.927250E-013
 0.928054E-013
 0.928853E-013
 0.929648E-013
 0.930437E-013
 0.931221E-013
 0.932000E-013
 0.932772E-013
 0.933537E-013
 0.934296E-013
 0.935046E-013
 0.935789E-013
 0.936522E-013
 0.937247E-013
 0.937961E-013
 0.938665E-013
 0.939357E-013
 0.940038E-013
 0.940706E-013
 0.941360E-013
 0.942001E-013
 0.942626E-013
 0.943236E-013
 0.943830E-013
 0.944407E-013
 0.944965E-013
 0.945505E-013
 0.946026E-013
 0.946526E-013
 0.947005E-013
 0.947462E-013
 0.947897E-013
 0.948308E-013
 0.948695E-013
 0.949058E-013
 0.949396E-013
 0.949708E-013
 0.949993E-013
 0.950251E-013
 0.950482E-013
 0.950685E-013
 0.950860E-013
 0.951006E-013
 0.951123E-013
 0.951211E-013
 0.951270E-013
 0.951300E-013
 0.951300E-013
 0.951270E-013
 0.951211E-013
 0.951123E-013
 0.951006E-013
 0.950860E-013
 0.950685E-013
 0.950482E-013
 0.950251E-013
 0.949993E-013
 0.949708E-013
 0.949396E-013
 0.949059E-013
 0.948696E-013
 0.948308E-013
 0.947897E-013
 0.947462E-013
 0.947005E-013
 0.946526E-013
 0.946026E-013
 0.945505E-013
 0.944966E-013
 0.944407E-013
 0.943830E-013
 0.943237E-013
 0.942627E-013
 0.942001E-013
 0.941361E-013
 0.940706E-013
 0.940038E-013
 0.939357E-013
 0.938665E-013
 0.937961E-013
 0.937247E-013
 0.936523E-013
 0.935789E-013
 0.935047E-013
 0.934296E-013
 0.933538E-013
 0.932772E-013
 0.932000E-013
 0.931222E-013
 0.930438E-013
 0.929648E-013
 0.928853E-013
 0.928054E-013
 0.927250E-013
 0.926442E-013
 0.925630E-013
 0.924815E-013
 0.923996E-013
 0.923174E-013
 0.922349E-013
 0.921521E-013
 0.920690E-013
 0.919857E-013
 0.919020E-013
 0.918187E-013
 0.917325E-013
 0.916565E-013
 0.915432E-013
 0.915457E-013
 0.912343E-013
 0.916497E-013
 0.912343E-013
 0.907702E-013
 0.909427E-013
 0.907890E-013
 0.907715E-013
 0.907066E-013
 0.906560E-013
 0.906019E-013
 0.905488E-013
 0.904957E-013
 0.904428E-013
 0.903900E-013
 0.903375E-013
 0.902851E-013
 0.902330E-013
 0.901810E-013
 0.901293E-013
 0.900779E-013
 0.900267E-013
 0.899757E-013
 0.899251E-013
 0.898748E-013
 0.898248E-013
 0.897752E-013
 0.897260E-013
 0.896772E-013
 0.896289E-013
 0.895810E-013
 0.895337E-013
 0.894869E-013
 0.894407E-013
 0.893951E-013
 0.893503E-013
 0.893061E-013
 0.892627E-013
 0.892200E-013
 0.891783E-013
 0.891374E-013
 0.890975E-013
 0.890585E-013
 0.890206E-013
 0.889838E-013
 0.889481E-013
 0.889136E-013
 0.888804E-013
 0.888485E-013
 0.888179E-013
 0.887886E-013
 0.887609E-013
 0.887346E-013
 0.887098E-013
 0.886866E-013
 0.886651E-013
 0.886451E-013
 0.886269E-013
 0.886104E-013
 0.885956E-013
 0.885827E-013
 0.885715E-013
 0.885621E-013
 0.885546E-013
 0.885490E-013
 0.885452E-013
 0.885434E-013
 0.885434E-013
 0.885453E-013
 0.885490E-013
 0.885547E-013
 0.885621E-013
 0.885715E-013
 0.885827E-013
 0.885956E-013
 0.886104E-013
 0.886269E-013
 0.886451E-013
 0.886651E-013
 0.886866E-013
 0.887098E-013
 0.887346E-013
 0.887609E-013
 0.887887E-013
 0.888179E-013
 0.888485E-013
 0.888804E-013
 0.889137E-013
 0.889481E-013
 0.889838E-013
 0.890206E-013
 0.890585E-013
 0.890975E-013
 0.891374E-013
 0.891783E-013
 0.892201E-013
 0.892627E-013
 0.893061E-013
 0.893503E-013
 0.893952E-013
 0.894407E-013
 0.894869E-013
 0.895337E-013
 0.895810E-013
 0.896289E-013
 0.896772E-013
 0.897260E-013
 0.897752E-013
 0.898248E-013
 0.898748E-013
 0.899251E-013
 0.899758E-013
 0.900267E-013
 0.900779E-013
 0.901294E-013
 0.901811E-013
 0.902330E-013
 0.902852E-013
 0.903375E-013
 0.903901E-013
 0.904428E-013
 0.904957E-013
 0.905488E-013
 0.906019E-013
 0.906560E-013
 0.907066E-013
 0.907715E-013
 0.907890E-013
 0.909427E-013
 0.907702E-013
 0.912343E-013
 0.915457E-013
 0.909427E-013
 0.913010E-013
 0.911841E-013
 0.912623E-013
 0.912727E-013
 0.913033E-013
 0.913285E-013
 0.913548E-013
 0.913809E-013
 0.914069E-013
 0.914327E-013
 0.914585E-013
 0.914842E-013
 0.915098E-013
 0.915353E-013
 0.915606E-013
 0.915858E-013
 0.916109E-013
 0.916359E-013
 0.916607E-013
 0.916854E-013
 0.917099E-013
 0.917342E-013
 0.917583E-013
 0.917822E-013
 0.918059E-013
 0.918293E-013
 0.918525E-013
 0.918754E-013
 0.918981E-013
 0.919204E-013
 0.919424E-013
 0.919640E-013
 0.919853E-013
 0.920062E-013
 0.920267E-013
 0.920467E-013
 0.920663E-013
 0.920853E-013
 0.921039E-013
 0.921220E-013
 0.921394E-013
 0.921563E-013
 0.921726E-013
 0.921883E-013
 0.922033E-013
 0.922176E-013
 0.922312E-013
 0.922441E-013
 0.922562E-013
 0.922676E-013
 0.922781E-013
 0.922879E-013
 0.922969E-013
 0.923049E-013
 0.923122E-013
 0.923185E-013
 0.923240E-013
 0.923286E-013
 0.923323E-013
 0.923350E-013
 0.923369E-013
 0.923378E-013
 0.923378E-013
 0.923369E-013
 0.923350E-013
 0.923323E-013
 0.923286E-013
 0.923240E-013
 0.923185E-013
 0.923122E-013
 0.923049E-013
 0.922968E-013
 0.922879E-013
 0.922781E-013
 0.922676E-013
 0.922562E-013
 0.922441E-013
 0.922312E-013
 0.922176E-013
 0.922032E-013
 0.921882E-013
 0.921726E-013
 0.921563E-013
 0.921394E-013
 0.921219E-013
 0.921039E-013
 0.920853E-013
 0.920662E-013
 0.920467E-013
 0.920266E-013
 0.920062E-013
 0.919853E-013
 0.919640E-013
 0.919423E-013
 0.919204E-013
 0.918980E-013
 0.918754E-013
 0.918525E-013
 0.918293E-013
 0.918058E-013
 0.917822E-013
 0.917582E-013
 0.917341E-013
 0.917098E-013
 0.916853E-013
 0.916607E-013
 0.916359E-013
 0.916109E-013
 0.915858E-013
 0.915606E-013
 0.915352E-013
 0.915098E-013
 0.914842E-013
 0.914585E-013
 0.914327E-013
 0.914068E-013
 0.913809E-013
 0.913548E-013
 0.913285E-013
 0.913033E-013
 0.912727E-013
 0.912623E-013
 0.911840E-013
 0.913010E-013
 0.909427E-013
 0.915457E-013
 0.915432E-013
 0.907890E-013
 0.911841E-013
 0.909949E-013
 0.910498E-013
 0.910191E-013
 0.910141E-013
 0.910025E-013
 0.909924E-013
 0.909821E-013
 0.909718E-013
 0.909616E-013
 0.909514E-013
 0.909413E-013
 0.909312E-013
 0.909211E-013
 0.909111E-013
 0.909011E-013
 0.908912E-013
 0.908813E-013
 0.908715E-013
 0.908618E-013
 0.908521E-013
 0.908425E-013
 0.908329E-013
 0.908235E-013
 0.908141E-013
 0.908049E-013
 0.907957E-013
 0.907866E-013
 0.907777E-013
 0.907689E-013
 0.907602E-013
 0.907516E-013
 0.907432E-013
 0.907350E-013
 0.907269E-013
 0.907190E-013
 0.907112E-013
 0.907037E-013
 0.906963E-013
 0.906892E-013
 0.906823E-013
 0.906756E-013
 0.906692E-013
 0.906630E-013
 0.906571E-013
 0.906514E-013
 0.906460E-013
 0.906409E-013
 0.906361E-013
 0.906317E-013
 0.906275E-013
 0.906236E-013
 0.906201E-013
 0.906169E-013
 0.906140E-013
 0.906115E-013
 0.906093E-013
 0.906075E-013
 0.906061E-013
 0.906050E-013
 0.906043E-013
 0.906039E-013
 0.906039E-013
 0.906043E-013
 0.906050E-013
 0.906061E-013
 0.906075E-013
 0.906094E-013
 0.906115E-013
 0.906140E-013
 0.906169E-013
 0.906201E-013
 0.906236E-013
 0.906275E-013
 0.906317E-013
 0.906362E-013
 0.906410E-013
 0.906460E-013
 0.906514E-013
 0.906571E-013
 0.906630E-013
 0.906692E-013
 0.906756E-013
 0.906823E-013
 0.906892E-013
 0.906964E-013
 0.907037E-013
 0.907112E-013
 0.907190E-013
 0.907269E-013
 0.907350E-013
 0.907432E-013
 0.907517E-013
 0.907602E-013
 0.907689E-013
 0.907777E-013
 0.907867E-013
 0.907957E-013
 0.908049E-013
 0.908142E-013
 0.908235E-013
 0.908330E-013
 0.908425E-013
 0.908521E-013
 0.908618E-013
 0.908715E-013
 0.908813E-013
 0.908912E-013
 0.909011E-013
 0.909111E-013
 0.909211E-013
 0.909312E-013
 0.909413E-013
 0.909514E-013
 0.909616E-013
 0.909718E-013
 0.909821E-013
 0.909925E-013
 0.910025E-013
 0.910142E-013
 0.910191E-013
 0.910498E-013
 0.909949E-013
 0.911840E-013
 0.907890E-013
 0.915432E-013
 0.916565E-013
 0.907715E-013
 0.912623E-013
 0.910498E-013
 0.911325E-013
 0.911112E-013
 0.911213E-013
 0.911231E-013
 0.911269E-013
 0.911302E-013
 0.911336E-013
 0.911370E-013
 0.911403E-013
 0.911436E-013
 0.911470E-013
 0.911503E-013
 0.911536E-013
 0.911569E-013
 0.911601E-013
 0.911634E-013
 0.911666E-013
 0.911698E-013
 0.911730E-013
 0.911762E-013
 0.911793E-013
 0.911824E-013
 0.911855E-013
 0.911885E-013
 0.911915E-013
 0.911945E-013
 0.911975E-013
 0.912004E-013
 0.912032E-013
 0.912060E-013
 0.912088E-013
 0.912115E-013
 0.912142E-013
 0.912168E-013
 0.912193E-013
 0.912218E-013
 0.912242E-013
 0.912266E-013
 0.912289E-013
 0.912311E-013
 0.912332E-013
 0.912352E-013
 0.912372E-013
 0.912390E-013
 0.912408E-013
 0.912425E-013
 0.912441E-013
 0.912455E-013
 0.912469E-013
 0.912482E-013
 0.912494E-013
 0.912504E-013
 0.912514E-013
 0.912522E-013
 0.912529E-013
 0.912535E-013
 0.912540E-013
 0.912543E-013
 0.912546E-013
 0.912547E-013
 0.912547E-013
 0.912546E-013
 0.912543E-013
 0.912540E-013
 0.912535E-013
 0.912529E-013
 0.912522E-013
 0.912514E-013
 0.912504E-013
 0.912494E-013
 0.912482E-013
 0.912469E-013
 0.912455E-013
 0.912441E-013
 0.912425E-013
 0.912408E-013
 0.912390E-013
 0.912372E-013
 0.912352E-013
 0.912332E-013
 0.912311E-013
 0.912289E-013
 0.912266E-013
 0.912242E-013
 0.912218E-013
 0.912193E-013
 0.912168E-013
 0.912142E-013
 0.912115E-013
 0.912088E-013
 0.912060E-013
 0.912032E-013
 0.912004E-013
 0.911975E-013
 0.911945E-013
 0.911915E-013
 0.911885E-013
 0.911855E-013
 0.911824E-013
 0.911793E-013
 0.911762E-013
 0.911730E-013
 0.911698E-013
 0.911666E-013
 0.911634E-013
 0.911601E-013
 0.911569E-013
 0.911536E-013
 0.911503E-013
 0.911470E-013
 0.911436E-013
 0.911403E-013
 0.911370E-013
 0.911336E-013
 0.911302E-013
 0.911269E-013
 0.911231E-013
 0.911213E-013
 0.911112E-013
 0.911325E-013
 0.910498E-013
 0.912623E-013
 0.907715E-013
 0.916565E-013
 0.917325E-013
 0.907066E-013
 0.912727E-013
 0.910191E-013
 0.911112E-013
 0.910812E-013
 0.910881E-013
 0.910853E-013
 0.910847E-013
 0.910837E-013
 0.910827E-013
 0.910818E-013
 0.910809E-013
 0.910799E-013
 0.910790E-013
 0.910781E-013
 0.910771E-013
 0.910762E-013
 0.910753E-013
 0.910744E-013
 0.910735E-013
 0.910726E-013
 0.910717E-013
 0.910708E-013
 0.910699E-013
 0.910690E-013
 0.910682E-013
 0.910673E-013
 0.910665E-013
 0.910656E-013
 0.910648E-013
 0.910640E-013
 0.910632E-013
 0.910624E-013
 0.910616E-013
 0.910609E-013
 0.910601E-013
 0.910594E-013
 0.910587E-013
 0.910580E-013
 0.910573E-013
 0.910567E-013
 0.910560E-013
 0.910554E-013
 0.910548E-013
 0.910543E-013
 0.910537E-013
 0.910532E-013
 0.910527E-013
 0.910522E-013
 0.910518E-013
 0.910514E-013
 0.910510E-013
 0.910506E-013
 0.910503E-013
 0.910500E-013
 0.910498E-013
 0.910495E-013
 0.910493E-013
 0.910492E-013
 0.910490E-013
 0.910489E-013
 0.910489E-013
 0.910488E-013
 0.910488E-013
 0.910489E-013
 0.910489E-013
 0.910490E-013
 0.910492E-013
 0.910493E-013
 0.910495E-013
 0.910498E-013
 0.910500E-013
 0.910503E-013
 0.910507E-013
 0.910510E-013
 0.910514E-013
 0.910518E-013
 0.910522E-013
 0.910527E-013
 0.910532E-013
 0.910537E-013
 0.910543E-013
 0.910548E-013
 0.910554E-013
 0.910560E-013
 0.910567E-013
 0.910573E-013
 0.910580E-013
 0.910587E-013
 0.910594E-013
 0.910601E-013
 0.910609E-013
 0.910616E-013
 0.910624E-013
 0.910632E-013
 0.910640E-013
 0.910648E-013
 0.910657E-013
 0.910665E-013
 0.910673E-013
 0.910682E-013
 0.910691E-013
 0.910699E-013
 0.910708E-013
 0.910717E-013
 0.910726E-013
 0.910735E-013
 0.910744E-013
 0.910753E-013
 0.910762E-013
 0.910771E-013
 0.910781E-013
 0.910790E-013
 0.910799E-013
 0.910809E-013
 0.910818E-013
 0.910828E-013
 0.910837E-013
 0.910847E-013
 0.910853E-013
 0.910881E-013
 0.910812E-013
 0.911112E-013
 0.910191E-013
 0.912727E-013
 0.907066E-013
 0.917325E-013
 0.918187E-013
 0.906560E-013
 0.913033E-013
 0.910141E-013
 0.911213E-013
 0.910881E-013
 0.910974E-013
 0.910955E-013
 0.910961E-013
 0.910963E-013
 0.910965E-013
 0.910968E-013
 0.910970E-013
 0.910972E-013
 0.910975E-013
 0.910977E-013
 0.910979E-013
 0.910981E-013
 0.910984E-013
 0.910986E-013
 0.910988E-013
 0.910990E-013
 0.910992E-013
 0.910995E-013
 0.910997E-013
 0.910999E-013
 0.911001E-013
 0.911003E-013
 0.911005E-013
 0.911007E-013
 0.911009E-013
 0.911011E-013
 0.911013E-013
 0.911015E-013
 0.911017E-013
 0.911019E-013
 0.911021E-013
 0.911023E-013
 0.911025E-013
 0.911026E-013
 0.911028E-013
 0.911030E-013
 0.911031E-013
 0.911033E-013
 0.911034E-013
 0.911036E-013
 0.911037E-013
 0.911039E-013
 0.911040E-013
 0.911041E-013
 0.911042E-013
 0.911043E-013
 0.911044E-013
 0.911045E-013
 0.911046E-013
 0.911047E-013
 0.911047E-013
 0.911048E-013
 0.911048E-013
 0.911049E-013
 0.911049E-013
 0.911049E-013
 0.911050E-013
 0.911050E-013
 0.911050E-013
 0.911050E-013
 0.911049E-013
 0.911049E-013
 0.911049E-013
 0.911048E-013
 0.911048E-013
 0.911047E-013
 0.911047E-013
 0.911046E-013
 0.911045E-013
 0.911044E-013
 0.911043E-013
 0.911042E-013
 0.911041E-013
 0.911040E-013
 0.911039E-013
 0.911037E-013
 0.911036E-013
 0.911034E-013
 0.911033E-013
 0.911031E-013
 0.911030E-013
 0.911028E-013
 0.911026E-013
 0.911025E-013
 0.911023E-013
 0.911021E-013
 0.911019E-013
 0.911017E-013
 0.911015E-013
 0.911013E-013
 0.911011E-013
 0.911009E-013
 0.911007E-013
 0.911005E-013
 0.911003E-013
 0.911001E-013
 0.910999E-013
 0.910997E-013
 0.910995E-013
 0.910992E-013
 0.910990E-013
 0.910988E-013
 0.910986E-013
 0.910984E-013
 0.910981E-013
 0.910979E-013
 0.910977E-013
 0.910975E-013
 0.910972E-013
 0.910970E-013
 0.910968E-013
 0.910965E-013
 0.910963E-013
 0.910961E-013
 0.910955E-013
 0.910974E-013
 0.910881E-013
 0.911213E-013
 0.910142E-013
 0.913033E-013
 0.906560E-013
 0.918187E-013
 0.919020E-013
 0.906019E-013
 0.913285E-013
 0.910025E-013
 0.911231E-013
 0.910853E-013
 0.910955E-013
 0.910930E-013
 0.910934E-013
 0.910933E-013
 0.910933E-013
 0.910932E-013
 0.910932E-013
 0.910931E-013
 0.910931E-013
 0.910930E-013
 0.910930E-013
 0.910929E-013
 0.910929E-013
 0.910928E-013
 0.910928E-013
 0.910927E-013
 0.910927E-013
 0.910926E-013
 0.910926E-013
 0.910925E-013
 0.910925E-013
 0.910925E-013
 0.910924E-013
 0.910924E-013
 0.910923E-013
 0.910923E-013
 0.910922E-013
 0.910922E-013
 0.910922E-013
 0.910921E-013
 0.910921E-013
 0.910921E-013
 0.910920E-013
 0.910920E-013
 0.910920E-013
 0.910919E-013
 0.910919E-013
 0.910919E-013
 0.910919E-013
 0.910918E-013
 0.910918E-013
 0.910918E-013
 0.910918E-013
 0.910917E-013
 0.910917E-013
 0.910917E-013
 0.910917E-013
 0.910917E-013
 0.910917E-013
 0.910916E-013
 0.910916E-013
 0.910916E-013
 0.910916E-013
 0.910916E-013
 0.910916E-013
 0.910916E-013
 0.910916E-013
 0.910916E-013
 0.910916E-013
 0.910916E-013
 0.910916E-013
 0.910916E-013
 0.910916E-013
 0.910916E-013
 0.910916E-013
 0.910916E-013
 0.910916E-013
 0.910917E-013
 0.910917E-013
 0.910917E-013
 0.910917E-013
 0.910917E-013
 0.910917E-013
 0.910918E-013
 0.910918E-013
 0.910918E-013
 0.910918E-013
 0.910919E-013
 0.910919E-013
 0.910919E-013
 0.910919E-013
 0.910920E-013
 0.910920E-013
 0.910920E-013
 0.910921E-013
 0.910921E-013
 0.910921E-013
 0.910922E-013
 0.910922E-013
 0.910922E-013
 0.910923E-013
 0.910923E-013
 0.910924E-013
 0.910924E-013
 0.910925E-013
 0.910925E-013
 0.910925E-013
 0.910926E-013
 0.910926E-013
 0.910927E-013
 0.910927E-013
 0.910928E-013
 0.910928E-013
 0.910929E-013
 0.910929E-013
 0.910930E-013
 0.910930E-013
 0.910931E-013
 0.910931E-013
 0.910932E-013
 0.910932E-013
 0.910933E-013
 0.910933E-013
 0.910934E-013
 0.910930E-013
 0.910955E-013
 0.910853E-013
 0.911231E-013
 0.910025E-013
 0.913285E-013
 0.906020E-013
 0.919020E-013
 0.919857E-013
 0.905488E-013
 0.913548E-013
 0.909924E-013
 0.911269E-013
 0.910847E-013
 0.910961E-013
 0.910934E-013
 0.910940E-013
 0.910939E-013
 0.910940E-013
 0.910940E-013
 0.910940E-013
 0.910940E-013
 0.910940E-013
 0.910940E-013
 0.910940E-013
 0.910940E-013
 0.910940E-013
 0.910940E-013
 0.910940E-013
 0.910941E-013
 0.910941E-013
 0.910941E-013
 0.910941E-013
 0.910941E-013
 0.910941E-013
 0.910941E-013
 0.910941E-013
 0.910941E-013
 0.910942E-013
 0.910942E-013
 0.910942E-013
 0.910942E-013
 0.910942E-013
 0.910942E-013
 0.910942E-013
 0.910942E-013
 0.910943E-013
 0.910943E-013
 0.910943E-013
 0.910943E-013
 0.910943E-013
 0.910943E-013
 0.910943E-013
 0.910943E-013
 0.910944E-013
 0.910944E-013
 0.910944E-013
 0.910944E-013
 0.910944E-013
 0.910944E-013
 0.910944E-013
 0.910944E-013
 0.910944E-013
 0.910944E-013
 0.910944E-013
 0.910945E-013
 0.910945E-013
 0.910945E-013
 0.910945E-013
 0.910945E-013
 0.910945E-013
 0.910945E-013
 0.910945E-013
 0.910945E-013
 0.910945E-013
 0.910945E-013
 0.910945E-013
 0.910945E-013
 0.910945E-013
 0.910944E-013
 0.910944E-013
 0.910944E-013
 0.910944E-013
 0.910944E-013
 0.910944E-013
 0.910944E-013
 0.910944E-013
 0.910944E-013
 0.910944E-013
 0.910944E-013
 0.910943E-013
 0.910943E-013
 0.910943E-013
 0.910943E-013
 0.910943E-013
 0.910943E-013
 0.910943E-013
 0.910943E-013
 0.910942E-013
 0.910942E-013
 0.910942E-013
 0.910942E-013
 0.910942E-013
 0.910942E-013
 0.910942E-013
 0.910942E-013
 0.910941E-013
 0.910941E-013
 0.910941E-013
 0.910941E-013
 0.910941E-013
 0.910941E-013
 0.910941E-013
 0.910941E-013
 0.910941E-013
 0.910940E-013
 0.910940E-013
 0.910940E-013
 0.910940E-013
 0.910940E-013
 0.910940E-013
 0.910940E-013
 0.910940E-013
 0.910940E-013
 0.910940E-013
 0.910940E-013
 0.910939E-013
 0.910940E-013
 0.910934E-013
 0.910961E-013
 0.910847E-013
 0.911269E-013
 0.909925E-013
 0.913548E-013
 0.905488E-013
 0.919857E-013
 0.920690E-013
 0.904957E-013
 0.913809E-013
 0.909821E-013
 0.911302E-013
 0.910837E-013
 0.910963E-013
 0.910933E-013
 0.910939E-013
 0.910938E-013
 0.910938E-013
 0.910938E-013
 0.910938E-013
 0.910938E-013
 0.910938E-013
 0.910938E-013
 0.910938E-013
 0.910938E-013
 0.910938E-013
 0.910938E-013
 0.910938E-013
 0.910938E-013
 0.910938E-013
 0.910938E-013
 0.910938E-013
 0.910938E-013
 0.910938E-013
 0.910938E-013
 0.910938E-013
 0.910938E-013
 0.910938E-013
 0.910938E-013
 0.910938E-013
 0.910938E-013
 0.910938E-013
 0.910938E-013
 0.910938E-013
 0.910938E-013
 0.910938E-013
 0.910939E-013
 0.910939E-013
 0.910939E-013
 0.910939E-013
 0.910939E-013
 0.910939E-013
 0.910939E-013
 0.910939E-013
 0.910939E-013
 0.910939E-013
 0.910939E-013
 0.910939E-013
 0.910939E-013
 0.910939E-013
 0.910939E-013
 0.910939E-013
 0.910939E-013
 0.910939E-013
 0.910939E-013
 0.910940E-013
 0.910940E-013
 0.910940E-013
 0.910940E-013
 0.910940E-013
 0.910940E-013
 0.910940E-013
 0.910940E-013
 0.910940E-013
 0.910940E-013
 0.910940E-013
 0.910940E-013
 0.910939E-013
 0.910939E-013
 0.910939E-013
 0.910939E-013
 0.910939E-013
 0.910939E-013
 0.910939E-013
 0.910939E-013
 0.910939E-013
 0.910939E-013
 0.910939E-013
 0.910939E-013
 0.910939E-013
 0.910939E-013
 0.910939E-013
 0.910939E-013
 0.910939E-013
 0.910939E-013
 0.910939E-013
 0.910938E-013
 0.910938E-013
 0.910938E-013
 0.910938E-013
 0.910938E-013
 0.910938E-013
 0.910938E-013
 0.910938E-013
 0.910938E-013
 0.910938E-013
 0.910938E-013
 0.910938E-013
 0.910938E-013
 0.910938E-013
 0.910938E-013
 0.910938E-013
 0.910938E-013
 0.910938E-013
 0.910938E-013
 0.910938E-013
 0.910938E-013
 0.910938E-013
 0.910938E-013
 0.910938E-013
 0.910938E-013
 0.910938E-013
 0.910938E-013
 0.910938E-013
 0.910938E-013
 0.910938E-013
 0.910939E-013
 0.910933E-013
 0.910963E-013
 0.910837E-013
 0.911302E-013
 0.909821E-013
 0.913809E-013
 0.904957E-013
 0.920690E-013
 0.921521E-013
 0.904428E-013
 0.914069E-013
 0.909718E-013
 0.911336E-013
 0.910827E-013
 0.910965E-013
 0.910933E-013
 0.910940E-013
 0.910938E-013
 0.910938E-013
 0.910938E-013
 0.910938E-013
 0.910938E-013
 0.910938E-013
 0.910938E-013
 0.910938E-013
 0.910938E-013
 0.910938E-013
 0.910938E-013
 0.910939E-013
 0.910939E-013
 0.910939E-013
 0.910939E-013
 0.910939E-013
 0.910939E-013
 0.910939E-013
 0.910939E-013
 0.910939E-013
 0.910939E-013
 0.910939E-013
 0.910939E-013
 0.910939E-013
 0.910939E-013
 0.910939E-013
 0.910939E-013
 0.910939E-013
 0.910939E-013
 0.910939E-013
 0.910939E-013
 0.910939E-013
 0.910940E-013
 0.910940E-013
 0.910940E-013
 0.910940E-013
 0.910940E-013
 0.910940E-013
 0.910940E-013
 0.910940E-013