# vtk DataFile Version 3.0
Solution data
ASCII
DATASET STRUCTURED_GRID
DIMENSIONS 128 128 1
POINTS 16384  double
      0.000004      0.000004      0.000000
      0.000012      0.000004      0.000000
      0.000020      0.000004      0.000000
      0.000027      0.000004      0.000000
      0.000035      0.000004      0.000000
      0.000043      0.000004      0.000000
      0.000051      0.000004      0.000000
      0.000059      0.000004      0.000000
      0.000066      0.000004      0.000000
      0.000074      0.000004      0.000000
      0.000082      0.000004      0.000000
      0.000090      0.000004      0.000000
      0.000098      0.000004      0.000000
      0.000105      0.000004      0.000000
      0.000113      0.000004      0.000000
      0.000121      0.000004      0.000000
      0.000129      0.000004      0.000000
      0.000137      0.000004      0.000000
      0.000145      0.000004      0.000000
      0.000152      0.000004      0.000000
      0.000160      0.000004      0.000000
      0.000168      0.000004      0.000000
      0.000176      0.000004      0.000000
      0.000184      0.000004      0.000000
      0.000191      0.000004      0.000000
      0.000199      0.000004      0.000000
      0.000207      0.000004      0.000000
      0.000215      0.000004      0.000000
      0.000223      0.000004      0.000000
      0.000230      0.000004      0.000000
      0.000238      0.000004      0.000000
      0.000246      0.000004      0.000000
      0.000254      0.000004      0.000000
      0.000262      0.000004      0.000000
      0.000270      0.000004      0.000000
      0.000277      0.000004      0.000000
      0.000285      0.000004      0.000000
      0.000293      0.000004      0.000000
      0.000301      0.000004      0.000000
      0.000309      0.000004      0.000000
      0.000316      0.000004      0.000000
      0.000324      0.000004      0.000000
      0.000332      0.000004      0.000000
      0.000340      0.000004      0.000000
      0.000348      0.000004      0.000000
      0.000355      0.000004      0.000000
      0.000363      0.000004      0.000000
      0.000371      0.000004      0.000000
      0.000379      0.000004      0.000000
      0.000387      0.000004      0.000000
      0.000395      0.000004      0.000000
      0.000402      0.000004      0.000000
      0.000410      0.000004      0.000000
      0.000418      0.000004      0.000000
      0.000426      0.000004      0.000000
      0.000434      0.000004      0.000000
      0.000441      0.000004      0.000000
      0.000449      0.000004      0.000000
      0.000457      0.000004      0.000000
      0.000465      0.000004      0.000000
      0.000473      0.000004      0.000000
      0.000480      0.000004      0.000000
      0.000488      0.000004      0.000000
      0.000496      0.000004      0.000000
      0.000504      0.000004      0.000000
      0.000512      0.000004      0.000000
      0.000520      0.000004      0.000000
      0.000527      0.000004      0.000000
      0.000535      0.000004      0.000000
      0.000543      0.000004      0.000000
      0.000551      0.000004      0.000000
      0.000559      0.000004      0.000000
      0.000566      0.000004      0.000000
      0.000574      0.000004      0.000000
      0.000582      0.000004      0.000000
      0.000590      0.000004      0.000000
      0.000598      0.000004      0.000000
      0.000605      0.000004      0.000000
      0.000613      0.000004      0.000000
      0.000621      0.000004      0.000000
      0.000629      0.000004      0.000000
      0.000637      0.000004      0.000000
      0.000645      0.000004      0.000000
      0.000652      0.000004      0.000000
      0.000660      0.000004      0.000000
      0.000668      0.000004      0.000000
      0.000676      0.000004      0.000000
      0.000684      0.000004      0.000000
      0.000691      0.000004      0.000000
      0.000699      0.000004      0.000000
      0.000707      0.000004      0.000000
      0.000715      0.000004      0.000000
      0.000723      0.000004      0.000000
      0.000730      0.000004      0.000000
      0.000738      0.000004      0.000000
      0.000746      0.000004      0.000000
      0.000754      0.000004      0.000000
      0.000762      0.000004      0.000000
      0.000770      0.000004      0.000000
      0.000777      0.000004      0.000000
      0.000785      0.000004      0.000000
      0.000793      0.000004      0.000000
      0.000801      0.000004      0.000000
      0.000809      0.000004      0.000000
      0.000816      0.000004      0.000000
      0.000824      0.000004      0.000000
      0.000832      0.000004      0.000000
      0.000840      0.000004      0.000000
      0.000848      0.000004      0.000000
      0.000855      0.000004      0.000000
      0.000863      0.000004      0.000000
      0.000871      0.000004      0.000000
      0.000879      0.000004      0.000000
      0.000887      0.000004      0.000000
      0.000895      0.000004      0.000000
      0.000902      0.000004      0.000000
      0.000910      0.000004      0.000000
      0.000918      0.000004      0.000000
      0.000926      0.000004      0.000000
      0.000934      0.000004      0.000000
      0.000941      0.000004      0.000000
      0.000949      0.000004      0.000000
      0.000957      0.000004      0.000000
      0.000965      0.000004      0.000000
      0.000973      0.000004      0.000000
      0.000980      0.000004      0.000000
      0.000988      0.000004      0.000000
      0.000996      0.000004      0.000000
      0.000004      0.000012      0.000000
      0.000012      0.000012      0.000000
      0.000020      0.000012      0.000000
      0.000027      0.000012      0.000000
      0.000035      0.000012      0.000000
      0.000043      0.000012      0.000000
      0.000051      0.000012      0.000000
      0.000059      0.000012      0.000000
      0.000066      0.000012      0.000000
      0.000074      0.000012      0.000000
      0.000082      0.000012      0.000000
      0.000090      0.000012      0.000000
      0.000098      0.000012      0.000000
      0.000105      0.000012      0.000000
      0.000113      0.000012      0.000000
      0.000121      0.000012      0.000000
      0.000129      0.000012      0.000000
      0.000137      0.000012      0.000000
      0.000145      0.000012      0.000000
      0.000152      0.000012      0.000000
      0.000160      0.000012      0.000000
      0.000168      0.000012      0.000000
      0.000176      0.000012      0.000000
      0.000184      0.000012      0.000000
      0.000191      0.000012      0.000000
      0.000199      0.000012      0.000000
      0.000207      0.000012      0.000000
      0.000215      0.000012      0.000000
      0.000223      0.000012      0.000000
      0.000230      0.000012      0.000000
      0.000238      0.000012      0.000000
      0.000246      0.000012      0.000000
      0.000254      0.000012      0.000000
      0.000262      0.000012      0.000000
      0.000270      0.000012      0.000000
      0.000277      0.000012      0.000000
      0.000285      0.000012      0.000000
      0.000293      0.000012      0.000000
      0.000301      0.000012      0.000000
      0.000309      0.000012      0.000000
      0.000316      0.000012      0.000000
      0.000324      0.000012      0.000000
      0.000332      0.000012      0.000000
      0.000340      0.000012      0.000000
      0.000348      0.000012      0.000000
      0.000355      0.000012      0.000000
      0.000363      0.000012      0.000000
      0.000371      0.000012      0.000000
      0.000379      0.000012      0.000000
      0.000387      0.000012      0.000000
      0.000395      0.000012      0.000000
      0.000402      0.000012      0.000000
      0.000410      0.000012      0.000000
      0.000418      0.000012      0.000000
      0.000426      0.000012      0.000000
      0.000434      0.000012      0.000000
      0.000441      0.000012      0.000000
      0.000449      0.000012      0.000000
      0.000457      0.000012      0.000000
      0.000465      0.000012      0.000000
      0.000473      0.000012      0.000000
      0.000480      0.000012      0.000000
      0.000488      0.000012      0.000000
      0.000496      0.000012      0.000000
      0.000504      0.000012      0.000000
      0.000512      0.000012      0.000000
      0.000520      0.000012      0.000000
      0.000527      0.000012      0.000000
      0.000535      0.000012      0.000000
      0.000543      0.000012      0.000000
      0.000551      0.000012      0.000000
      0.000559      0.000012      0.000000
      0.000566      0.000012      0.000000
      0.000574      0.000012      0.000000
      0.000582      0.000012      0.000000
      0.000590      0.000012      0.000000
      0.000598      0.000012      0.000000
      0.000605      0.000012      0.000000
      0.000613      0.000012      0.000000
      0.000621      0.000012      0.000000
      0.000629      0.000012      0.000000
      0.000637      0.000012      0.000000
      0.000645      0.000012      0.000000
      0.000652      0.000012      0.000000
      0.000660      0.000012      0.000000
      0.000668      0.000012      0.000000
      0.000676      0.000012      0.000000
      0.000684      0.000012      0.000000
      0.000691      0.000012      0.000000
      0.000699      0.000012      0.000000
      0.000707      0.000012      0.000000
      0.000715      0.000012      0.000000
      0.000723      0.000012      0.000000
      0.000730      0.000012      0.000000
      0.000738      0.000012      0.000000
      0.000746      0.000012      0.000000
      0.000754      0.000012      0.000000
      0.000762      0.000012      0.000000
      0.000770      0.000012      0.000000
      0.000777      0.000012      0.000000
      0.000785      0.000012      0.000000
[...]
POINT_DATA 16384
SCALARS rhoe double
LOOKUP_TABLE default
 0.912110E-013
 0.911994E-013
 0.912546E-013
 0.913056E-013
 0.913567E-013
 0.914077E-013
 0.914588E-013
 0.915097E-013
 0.915607E-013
 0.916116E-013
 0.916624E-013
 0.917132E-013
 0.917639E-013
 0.918145E-013
 0.918651E-013
 0.919156E-013
 0.919659E-013
 0.920162E-013
 0.920663E-013
 0.921163E-013
 0.921660E-013
 0.922156E-013
 0.922650E-013
 0.923142E-013
 0.923630E-013
 0.924116E-013
 0.924598E-013
 0.925077E-013
 0.925552E-013
 0.926022E-013
 0.926488E-013
 0.926948E-013
 0.927403E-013
 0.927852E-013
 0.928294E-013
 0.928729E-013
 0.929156E-013
 0.929575E-013
 0.929985E-013
 0.930386E-013
 0.930778E-013
 0.931159E-013
 0.931528E-013
 0.931887E-013
 0.932233E-013
 0.932566E-013
 0.932885E-013
 0.933191E-013
 0.933482E-013
 0.933759E-013
 0.934019E-013
 0.934263E-013
 0.934491E-013
 0.934701E-013
 0.934894E-013
 0.935069E-013
 0.935225E-013
 0.935363E-013
 0.935481E-013
 0.935581E-013
 0.935660E-013
 0.935720E-013
 0.935760E-013
 0.935780E-013
 0.935780E-013
 0.935760E-013
 0.935720E-013
 0.935660E-013
 0.935580E-013
 0.935481E-013
 0.935363E-013
 0.935225E-013
 0.935068E-013
 0.934894E-013
 0.934701E-013
 0.934490E-013
 0.934263E-013
 0.934018E-013
 0.933758E-013
 0.933482E-013
 0.933190E-013
 0.932885E-013
 0.932565E-013
 0.932232E-013
 0.931886E-013
 0.931527E-013
 0.931157E-013
 0.930777E-013
 0.930385E-013
 0.929984E-013
 0.929574E-013
 0.929155E-013
 0.928727E-013
 0.928292E-013
 0.927850E-013
 0.927402E-013
 0.926947E-013
 0.926487E-013
 0.926021E-013
 0.925551E-013
 0.925076E-013
 0.924597E-013
 0.924115E-013
 0.923629E-013
 0.923141E-013
 0.922649E-013
 0.922156E-013
 0.921660E-013
 0.921162E-013
 0.920662E-013
 0.920161E-013
 0.919659E-013
 0.919155E-013
 0.918650E-013
 0.918145E-013
 0.917638E-013
 0.917131E-013
 0.916623E-013
 0.916115E-013
 0.915606E-013
 0.915097E-013
 0.914587E-013
 0.914077E-013
 0.913567E-013
 0.913056E-013
 0.912546E-013
 0.911994E-013
 0.912110E-013
 0.911994E-013
 0.910792E-013
 0.910834E-013
 0.910796E-013
 0.910761E-013
 0.910726E-013
 0.910691E-013
 0.910657E-013
 0.910622E-013
 0.910588E-013
 0.910553E-013
 0.910519E-013
 0.910485E-013
 0.910450E-013
 0.910416E-013
 0.910382E-013
 0.910348E-013
 0.910314E-013
 0.910280E-013
 0.910247E-013
 0.910213E-013
 0.910180E-013
 0.910147E-013
 0.910114E-013
 0.910081E-013
 0.910049E-013
 0.910017E-013
 0.909985E-013
 0.909953E-013
 0.909922E-013
 0.909891E-013
 0.909861E-013
 0.909831E-013
 0.909801E-013
 0.909772E-013
 0.909744E-013
 0.909716E-013
 0.909689E-013
 0.909662E-013
 0.909636E-013
 0.909610E-013
 0.909586E-013
 0.909562E-013
 0.909539E-013
 0.909517E-013
 0.909495E-013
 0.909475E-013
 0.909455E-013
 0.909437E-013
 0.909419E-013
 0.909403E-013
 0.909387E-013
 0.909373E-013
 0.909360E-013
 0.909348E-013
 0.909337E-013
 0.909327E-013
 0.909318E-013
 0.909311E-013
 0.909305E-013
 0.909300E-013
 0.909296E-013
 0.909294E-013
 0.909292E-013
 0.909292E-013
 0.909293E-013
 0.909296E-013
 0.909300E-013
 0.909305E-013
 0.909311E-013
 0.909318E-013
 0.909327E-013
 0.909337E-013
 0.909348E-013
 0.909360E-013
 0.909373E-013
 0.909387E-013
 0.909403E-013
 0.909419E-013
 0.909437E-013
 0.909455E-013
 0.909475E-013
 0.909495E-013
 0.909516E-013
 0.909539E-013
 0.909562E-013
 0.909586E-013
 0.909610E-013
 0.909636E-013
 0.909662E-013
 0.909688E-013
 0.909716E-013
 0.909744E-013
 0.909772E-013
 0.909801E-013
 0.909831E-013
 0.909861E-013
 0.909891E-013
 0.909922E-013
 0.909953E-013
 0.909985E-013
 0.910016E-013
 0.910049E-013
 0.910081E-013
 0.910114E-013
 0.910147E-013
 0.910180E-013
 0.910213E-013
 0.910246E-013
 0.910280E-013
 0.910314E-013
 0.910348E-013
 0.910382E-013
 0.910416E-013
 0.910450E-013
 0.910484E-013
 0.910519E-013
 0.910553E-013
 0.910588E-013
 0.910622E-013
 0.910657E-013
 0.910691E-013
 0.910726E-013
 0.910761E-013
 0.910795E-013
 0.910834E-013
 0.910792E-013
 0.911994E-013
 0.912546E-013
 0.910834E-013
 0.910948E-013
 0.910945E-013
 0.910947E-013
 0.910948E-013
 0.910950E-013
 0.910951E-013
 0.910953E-013
 0.910955E-013
 0.910956E-013
 0.910958E-013
 0.910959E-013
 0.910961E-013
 0.910963E-013
 0.910964E-013
 0.910966E-013
 0.910968E-013
 0.910970E-013
 0.910971E-013
 0.910973E-013
 0.910975E-013
 0.910977E-013
 0.910978E-013
 0.910980E-013
 0.910982E-013
 0.910984E-013
 0.910986E-013
 0.910988E-013
 0.910990E-013
 0.910992E-013
 0.910994E-013
 0.910996E-013
 0.910998E-013
 0.911000E-013
 0.911002E-013
 0.911004E-013
 0.911007E-013
 0.911009E-013
 0.911011E-013
 0.911013E-013
 0.911015E-013
 0.911017E-013
 0.911020E-013
 0.911022E-013
 0.911024E-013
 0.911026E-013
 0.911028E-013
 0.911030E-013
 0.911032E-013
 0.911034E-013
 0.911036E-013
 0.911037E-013
 0.911039E-013
 0.911040E-013
 0.911042E-013
 0.911043E-013
 0.911044E-013
 0.911045E-013
 0.911046E-013
 0.911046E-013
 0.911047E-013
 0.911047E-013
 0.911047E-013
 0.911047E-013
 0.911047E-013
 0.911047E-013
 0.911046E-013
 0.911046E-013
 0.911045E-013
 0.911044E-013
 0.911043E-013
 0.911042E-013
 0.911040E-013
 0.911039E-013
 0.911037E-013
 0.911036E-013
 0.911034E-013
 0.911032E-013
 0.911030E-013
 0.911028E-013
 0.911026E-013
 0.911024E-013
 0.911022E-013
 0.911020E-013
 0.911017E-013
 0.911015E-013
 0.911013E-013
 0.911011E-013
 0.911009E-013
 0.911007E-013
 0.911004E-013
 0.911002E-013
 0.911000E-013
 0.910998E-013
 0.910996E-013
 0.910994E-013
 0.910992E-013
 0.910990E-013
 0.910988E-013
 0.910986E-013
 0.910984E-013
 0.910982E-013
 0.910980E-013
 0.910978E-013
 0.910977E-013
 0.910975E-013
 0.910973E-013
 0.910971E-013
 0.910970E-013
 0.910968E-013
 0.910966E-013
 0.910964E-013
 0.910963E-013
 0.910961E-013
 0.910959E-013
 0.910958E-013
 0.910956E-013
 0.910955E-013
 0.910953E-013
 0.910951E-013
 0.910950E-013
 0.910948E-013
 0.910947E-013
 0.910945E-013
 0.910948E-013
 0.910834E-013
 0.912546E-013
 0.913056E-013
 0.910796E-013
 0.910945E-013
 0.910938E-013
 0.910938E-013
 0.910938E-013
 0.910938E-013
 0.910938E-013
 0.910938E-013
 0.910938E-013
 0.910938E-013
 0.910938E-013
 0.910938E-013
 0.910938E-013
 0.910938E-013
 0.910938E-013
 0.910939E-013
 0.910939E-013
 0.910939E-013
 0.910939E-013
 0.910939E-013
 0.910940E-013
 0.910940E-013
 0.910940E-013
 0.910941E-013
 0.910941E-013
 0.910941E-013
 0.910942E-013
 0.910942E-013
 0.910943E-013
 0.910944E-013
 0.910944E-013
 0.910945E-013
 0.910946E-013
 0.910947E-013
 0.910948E-013
 0.910949E-013
 0.910950E-013
 0.910951E-013
 0.910952E-013
 0.910953E-013
 0.910954E-013
 0.910956E-013
 0.910957E-013
 0.910958E-013
 0.910959E-013
 0.910961E-013
 0.910962E-013
 0.910963E-013
 0.910965E-013
 0.910966E-013
 0.910967E-013
 0.910968E-013
 0.910969E-013
 0.910970E-013
 0.910971E-013
 0.910972E-013
 0.910973E-013
 0.910974E-013
 0.910974E-013
 0.910975E-013
 0.910975E-013
 0.910975E-013
 0.910975E-013
 0.910975E-013
 0.910975E-013
 0.910975E-013
 0.910975E-013
 0.910974E-013
 0.910974E-013
 0.910973E-013
 0.910972E-013
 0.910971E-013
 0.910970E-013
 0.910969E-013
 0.910968E-013
 0.910967E-013
 0.910966E-013
 0.910965E-013
 0.910963E-013
 0.910962E-013
 0.910961E-013
 0.910959E-013
 0.910958E-013
 0.910957E-013
 0.910956E-013
 0.910954E-013
 0.910953E-013
 0.910952E-013
 0.910951E-013
 0.910950E-013
 0.910949E-013
 0.910948E-013
 0.910947E-013
 0.910946E-013
 0.910945E-013
 0.910944E-013
 0.910944E-013
 0.910943E-013
 0.910942E-013
 0.910942E-013
 0.910941E-013
 0.910941E-013
 0.910940E-013
 0.910940E-013
 0.910940E-013
 0.910939E-013
 0.910939E-013
 0.910939E-013
 0.910939E-013
 0.910939E-013
 0.910939E-013
 0.910938E-013
 0.910938E-013
 0.910938E-013
 0.910938E-013
 0.910938E-013
 0.910938E-013
 0.910938E-013
 0.910938E-013
 0.910938E-013
 0.910938E-013
 0.910938E-013
 0.910938E-013
 0.910938E-013
 0.910945E-013
 0.910795E-013
 0.913056E-013
 0.913567E-013
 0.910761E-013
 0.910947E-013
 0.910938E-013
 0.910939E-013
 0.910939E-013
 0.910939E-013
 0.910939E-013
 0.910939E-013
 0.910939E-013
 0.910939E-013
 0.910939E-013
 0.910939E-013
 0.910939E-013
 0.910939E-013
 0.910940E-013
 0.910940E-013
 0.910940E-013
 0.910940E-013
 0.910941E-013
 0.910941E-013
 0.910941E-013
 0.910942E-013
 0.910942E-013
 0.910943E-013
 0.910943E-013
 0.910944E-013
 0.910944E-013
 0.910945E-013
 0.910946E-013
 0.910947E-013
 0.910948E-013
 0.910949E-013
 0.910950E-013
 0.910951E-013
 0.910952E-013
 0.910953E-013
 0.910955E-013
 0.910956E-013
 0.910957E-013
 0.910959E-013
 0.910960E-013
 0.910962E-013
 0.910963E-013
 0.910965E-013
 0.910967E-013
 0.910968E-013
 0.910970E-013
 0.910971E-013
 0.910973E-013
 0.910974E-013
 0.910976E-013
 0.910977E-013
 0.910979E-013
 0.910980E-013
 0.910981E-013
 0.910982E-013
 0.910983E-013
 0.910984E-013
 0.910985E-013
 0.910985E-013
 0.910986E-013
 0.910986E-013
 0.910986E-013
 0.910986E-013
 0.910986E-013
 0.910986E-013
 0.910985E-013
 0.910985E-013
 0.910984E-013
 0.910983E-013
 0.910982E-013
 0.910981E-013
 0.910980E-013
 0.910979E-013
 0.910977E-013
 0.910976E-013
 0.910974E-013
 0.910973E-013
 0.910971E-013
 0.910970E-013
 0.910968E-013
 0.910967E-013
 0.910965E-013
 0.910963E-013
 0.910962E-013
 0.910960E-013
 0.910959E-013
 0.910957E-013
 0.910956E-013
 0.910954E-013
 0.910953E-013
 0.910952E-013
 0.910951E-013
 0.910950E-013
 0.910949E-013
 0.910948E-013
 0.910947E-013
 0.910946E-013
 0.910945E-013
 0.910944E-013
 0.910944E-013
 0.910943E-013
 0.910943E-013
 0.910942E-013
 0.910942E-013
 0.910941E-013
 0.910941E-013
 0.910940E-013
 0.910940E-013
 0.910940E-013
 0.910940E-013
 0.910940E-013
 0.910939E-013
 0.910939E-013
 0.910939E-013
 0.910939E-013
 0.910939E-013
 0.910939E-013
 0.910939E-013
 0.910939E-013
 0.910939E-013
 0.910939E-013
 0.910939E-013
 0.910938E-013
 0.910947E-013
 0.910761E-013
 0.913567E-013
 0.914077E-013
 0.910726E-013
 0.910948E-013
 0.910938E-013
 0.910939E-013
 0.910939E-013
 0.910939E-013
 0.910939E-013
 0.910939E-013
 0.910939E-013
 0.910939E-013
 0.910939E-013
 0.910939E-013
 0.910939E-013
 0.910940E-013
 0.910940E-013
 0.910940E-013
 0.910940E-013
 0.910941E-013
 0.910941E-013
 0.910941E-013
 0.910942E-013
 0.910942E-013
 0.910943E-013
 0.910943E-013
 0.910944E-013
 0.910945E-013
 0.910946E-013
 0.910946E-013
 0.910947E-013
 0.910948E-013
 0.910949E-013
 0.910951E-013
 0.910952E-013
 0.910953E-013
 0.910955E-013
 0.910956E-013
 0.910958E-013
 0.910959E-013
 0.910961E-013
 0.910963E-013
 0.910965E-013
 0.910966E-013
 0.910968E-013
 0.910970E-013
 0.910972E-013
 0.910974E-013
 0.910976E-013
 0.910978E-013
 0.910980E-013
 0.910982E-013
 0.910983E-013
 0.910985E-013
 0.910987E-013
 0.910988E-013
 0.910990E-013
 0.910991E-013
 0.910992E-013
 0.910993E-013
 0.910994E-013
 0.910995E-013
 0.910995E-013
 0.910995E-013
 0.910996E-013
 0.910996E-013
 0.910995E-013
 0.910995E-013
 0.910995E-013
 0.910994E-013
 0.910993E-013
 0.910992E-013
 0.910991E-013
 0.910990E-013
 0.910988E-013
 0.910987E-013
 0.910985E-013
 0.910983E-013
 0.910982E-013
 0.910980E-013
 0.910978E-013
 0.910976E-013
 0.910974E-013
 0.910972E-013
 0.910970E-013
 0.910968E-013
 0.910966E-013
 0.910964E-013
 0.910963E-013
 0.910961E-013
 0.910959E-013
 0.910958E-013
 0.910956E-013
 0.910955E-013
 0.910953E-013
 0.910952E-013
 0.910951E-013
 0.910949E-013
 0.910948E-013
 0.910947E-013
 0.910946E-013
 0.910945E-013
 0.910945E-013
 0.910944E-013
 0.910943E-013
 0.910943E-013
 0.910942E-013
 0.910942E-013
 0.910941E-013
 0.910941E-013
 0.910941E-013
 0.910940E-013
 0.910940E-013
 0.910940E-013
 0.910940E-013
 0.910939E-013
 0.910939E-013
 0.910939E-013
 0.910939E-013
 0.910939E-013
 0.910939E-013
 0.910939E-013
 0.910939E-013
 0.910939E-013
 0.910939E-013
 0.910938E-013
 0.910948E-013
 0.910726E-013
 0.914077E-013
 0.914588E-013
 0.910691E-013
 0.910950E-013
 0.910938E-013
 0.910939E-013
 0.910939E-013
 0.910939E-013
 0.910939E-013
 0.910939E-013
 0.910939E-013
 0.910939E-013
 0.910939E-013
 0.910939E-013
 0.910940E-013
 0.910940E-013
 0.910940E-013
 0.910940E-013
 0.910941E-013
 0.910941E-013
 0.910941E-013
 0.910942E-013
 0.910942E-013
 0.910943E-013
 0.910944E-013
 0.910944E-013
 0.910945E-013
 0.910946E-013
 0.910947E-013
 0.910948E-013
 0.910949E-013
 0.910950E-013
 0.910952E-013
 0.910953E-013
 0.910955E-013
 0.910956E-013
 0.910958E-013
 0.910960E-013
 0.910961E-013
 0.910963E-013
 0.910965E-013
 0.910967E-013
 0.910970E-013
 0.910972E-013
 0.910974E-013
 0.910976E-013
 0.910979E-013
 0.910981E-013
 0.910983E-013
 0.910986E-013
 0.910988E-013
 0.910990E-013
 0.910992E-013
 0.910994E-013
 0.910996E-013
 0.910998E-013
 0.911000E-013
 0.911001E-013
 0.911002E-013
 0.911004E-013
 0.911005E-013
 0.911005E-013
 0.911006E-013
 0.911006E-013
 0.911007E-013
 0.911007E-013
 0.911006E-013
 0.911006E-013
 0.911005E-013
 0.911005E-013
 0.911004E-013
 0.911002E-013
 0.911001E-013
 0.910999E-013
 0.910998E-013
 0.910996E-013
 0.910994E-013
 0.910992E-013
 0.910990E-013
 0.910988E-013
 0.910985E-013
 0.910983E-013
 0.910981E-013
 0.910979E-013
 0.910976E-013
 0.910974E-013
 0.910972E-013
 0.910970E-013
 0.910967E-013
 0.910965E-013
 0.910963E-013
 0.910961E-013
 0.910959E-013
 0.910958E-013
 0.910956E-013
 0.910954E-013
 0.910953E-013
 0.910952E-013
 0.910950E-013
 0.910949E-013
 0.910948E-013
 0.910947E-013
 0.910946E-013
 0.910945E-013
 0.910944E-013
 0.910944E-013
 0.910943E-013
 0.910942E-013
 0.910942E-013
 0.910941E-013
 0.910941E-013
 0.910941E-013
 0.910940E-013
 0.910940E-013
 0.910940E-013
 0.910940E-013
 0.910939E-013
 0.910939E-013
 0.910939E-013
 0.910939E-013
 0.910939E-013
 0.910939E-013
 0.910939E-013
 0.910939E-013
 0.910939E-013
 0.910938E-013
 0.910950E-013
 0.910691E-013
 0.914587E-013
 0.915097E-013
 0.910657E-013
 0.910951E-013
 0.910938E-013
 0.910939E-013
 0.910939E-013
 0.910939E-013
 0.910939E-013
 0.910939E-013
 0.910939E-013
 0.910939E-013
 0.910939E-013
 0.910940E-013
 0.910940E-013
 0.910940E-013
 0.910940E-013
 0.910941E-013
 0.910941E-013
 0.910942E-013
 0.910942E-013
 0.910943E-013
 0.910943E-013
 0.910944E-013
 0.910945E-013
 0.910946E-013
 0.910946E-013
 0.910948E-013
 0.910949E-013
 0.910950E-013
 0.910951E-013
 0.910953E-013
 0.910954E-013
 0.910956E-013
 0.910958E-013
 0.910960E-013
 0.910961E-013
 0.910964E-013
 0.910966E-013
 0.910968E-013
 0.910971E-013
 0.910973E-013
 0.910976E-013
 0.910978E-013
 0.910981E-013
 0.910984E-013
 0.910986E-013
 0.910989E-013
 0.910992E-013
 0.910995E-013
 0.910997E-013
 0.911000E-013
 0.911002E-013
 0.911005E-013
 0.911007E-013
 0.911009E-013
 0.911011E-013
 0.911013E-013
 0.911015E-013
 0.911016E-013
 0.911017E-013
 0.911018E-013
 0.911019E-013
 0.911019E-013
 0.911020E-013
 0.911020E-013
 0.911019E-013
 0.911019E-013
 0.911018E-013
 0.911017E-013
 0.911016E-013
 0.911015E-013
 0.911013E-013
 0.911011E-013
 0.911009E-013
 0.911007E-013
 0.911005E-013
 0.911002E-013
 0.911000E-013
 0.910997E-013
 0.910994E-013
 0.910992E-013
 0.910989E-013
 0.910986E-013
 0.910984E-013
 0.910981E-013
 0.910978E-013
 0.910976E-013
 0.910973E-013
 0.910970E-013
 0.910968E-013
 0.910966E-013
 0.910964E-013
 0.910961E-013
 0.910959E-013
 0.910958E-013
 0.910956E-013
 0.910954E-013
 0.910953E-013
 0.910951E-013
 0.910950E-013
 0.910949E-013
 0.910947E-013
 0.910946E-013
 0.910945E-013
 0.910945E-013
 0.910944E-013
 0.910943E-013
 0.910943E-013
 0.910942E-013
 0.910941E-013
 0.910941E-013
 0.910941E-013
 0.910940E-013
 0.910940E-013
 0.910940E-013
 0.910940E-013
 0.910939E-013
 0.910939E-013
 0.910939E-013
 0.910939E-013
 0.910939E-013
 0.910939E-013
 0.910939E-013
 0.910939E-013
 0.910938E-013
 0.910951E-013
 0.910657E-013
 0.915097E-013
 0.915607E-013
 0.910622E-013
 0.910953E-013
 0.910938E-013
 0.910939E-013
 0.910939E-013
 0.910939E-013
 0.910939E-013
 0.910939E-013
 0.910939E-013
 0.910939E-013
 0.910940E-013
 0.910940E-013
 0.910940E-013
 0.910940E-013
 0.910941E-013
 0.910941E-013
 0.910942E-013
 0.910942E-013
 0.910943E-013
 0.910943E-013
 0.910944E-013
 0.910945E-013
 0.910946E-013
 0.910947E-013
 0.910948E-013
 0.910949E-013
 0.910951E-013
 0.910952E-013
 0.910954E-013
 0.910955E-013
 0.910957E-013
 0.910959E-013
 0.910961E-013
 0.910963E-013
 0.910966E-013
 0.910968E-013
 0.910971E-013
 0.910974E-013
 0.910977E-013
 0.910980E-013
 0.910983E-013
 0.910986E-013
 0.910989E-013
 0.910992E-013
 0.910995E-013
 0.910999E-013
 0.911002E-013
 0.911005E-013
 0.911008E-013
 0.911011E-013
 0.911014E-013
 0.911017E-013
 0.911020E-013
 0.911022E-013
 0.911025E-013
 0.911027E-013
 0.911029E-013
 0.911031E-013
 0.911032E-013
 0.911033E-013
 0.911034E-013
 0.911035E-013
 0.911035E-013
 0.911035E-013
 0.911035E-013
 0.911034E-013
 0.911033E-013
 0.911032E-013
 0.911031E-013
 0.911029E-013
 0.911027E-013
 0.911025E-013
 0.911022E-013
 0.911020E-013
 0.911017E-013
 0.911014E-013
 0.911011E-013
 0.911008E-013
 0.911005E-013
 0.911002E-013
 0.910999E-013
 0.910995E-013
 0.910992E-013
 0.910989E-013
 0.910986E-013
 0.910983E-013
 0.910979E-013
 0.910977E-013
 0.910974E-013
 0.910971E-013
 0.910968E-013
 0.910966E-013
 0.910963E-013
 0.910961E-013
 0.910959E-013
 0.910957E-013
 0.910955E-013
 0.910954E-013
 0.910952E-013
 0.910951E-013
 0.910949E-013
 0.910948E-013
 0.910947E-013
 0.910946E-013
 0.910945E-013
 0.910944E-013
 0.910943E-013
 0.910943E-013
 0.910942E-013
 0.910942E-013
 0.910941E-013
 0.910941E-013
 0.910940E-013
 0.910940E-013
 0.910940E-013
 0.910940E-013
 0.910939E-013
 0.910939E-013
 0.910939E-013
 0.910939E-013
 0.910939E-013
 0.910939E-013
 0.910939E-013
 0.910938E-013
 0.910953E-013
 0.910622E-013
 0.915606E-013
 0.916116E-013
 0.910588E-013
 0.910955E-013
 0.910938E-013
 0.910939E-013
 0.910939E-013
 0.910939E-013
 0.910939E-013
 0.910939E-013
 0.910939E-013
 0.910940E-013
 0.910940E-013
 0.910940E-013
 0.910940E-013
 0.910941E-013
 0.910941E-013
 0.910942E-013
 0.910942E-013
 0.910943E-013
 0.910944E-013
 0.910944E-013
 0.910945E-013
 0.910946E-013
 0.910947E-013
 0.910948E-013
 0.910950E-013
 0.910951E-013
 0.910953E-013
 0.910955E-013
 0.910956E-013
 0.910958E-013
 0.910961E-013
 0.910963E-013
 0.910965E-013
 0.910968E-013
 0.910971E-013
 0.910974E-013
 0.910977E-013
 0.910980E-013
 0.910984E-013
 0.910987E-013
 0.910991E-013
 0.910994E-013
 0.910998E-013
 0.911002E-013
 0.911006E-013
 0.911010E-013
 0.911013E-013
 0.911017E-013
 0.911021E-013
 0.911025E-013
 0.911028E-013
 0.911032E-013
 0.911035E-013
 0.911038E-013
 0.911041E-013
 0.911043E-013
 0.911045E-013
 0.911047E-013
 0.911049E-013
 0.911051E-013
 0.911052E-013
 0.911052E-013
 0.911053E-013
 0.911053E-013
 0.911052E-013
 0.911052E-013
 0.911051E-013
 0.911049E-013
 0.911047E-013
 0.911045E-013
 0.911043E-013
 0.911041E-013
 0.911038E-013
 0.911035E-013
 0.911032E-013
 0.911028E-013
 0.911025E-013
 0.911021E-013
 0.911017E-013
 0.911013E-013
 0.911010E-013
 0.911006E-013
 0.911002E-013
 0.910998E-013
 0.910994E-013
 0.910991E-013
 0.910987E-013
 0.910984E-013
 0.910980E-013
 0.910977E-013
 0.910974E-013
 0.910971E-013
 0.910968E-013
 0.910965E-013
 0.910963E-013
 0.910961E-013
 0.910958E-013
 0.910956E-013
 0.910955E-013
 0.910953E-013
 0.910951E-013
 0.910950E-013
 0.910948E-013
 0.910947E-013
 0.910946E-013
 0.910945E-013
 0.910944E-013
 0.910944E-013
 0.910943E-013
 0.910942E-013
 0.910942E-013
 0.910941E-013
 0.910941E-013
 0.910940E-013
 0.910940E-013
 0.910940E-013
 0.910940E-013
 0.910939E-013
 0.910939E-013
 0.910939E-013
 0.910939E-013
 0.910939E-013
 0.910939E-013
 0.910938E-013
 0.910955E-013
 0.910588E-013
 0.916115E-013
 0.916624E-013
 0.910553E-013
 0.910956E-013
 0.910938E-013
 0.910939E-013
 0.910939E-013
 0.910939E-013
 0.910939E-013
 0.910939E-013
 0.910940E-013
 0.910940E-013
 0.910940E-013
 0.910940E-013
 0.910941E-013
 0.910941E-013
 0.910942E-013
 0.910942E-013
 0.910943E-013
 0.910944E-013
 0.910945E-013
 0.910945E-013
 0.910946E-013
 0.910948E-013
 0.910949E-013
 0.910950E-013
 0.910952E-013
 0.910954E-013
 0.910955E-013
 0.910958E-013
 0.910960E-013
 0.910962E-013
 0.910965E-013
 0.910967E-013
 0.910970E-013
 0.910973E-013
 0.910977E-013
 0.910980E-013
 0.910984E-013
 0.910988E-013
 0.910992E-013
 0.910996E-013
 0.911000E-013
 0.911004E-013
 0.911009E-013
 0.911013E-013
 0.911018E-013
 0.911022E-013
 0.911027E-013
 0.911031E-013