# vtk DataFile Version 3.0
Solution data
ASCII
DATASET STRUCTURED_GRID
DIMENSIONS 128 128 1
POINTS 16384  double
      0.000004      0.000004      0.000000
      0.000012      0.000004      0.000000
      0.000020      0.000004      0.000000
      0.000027      0.000004      0.000000
      0.000035      0.000004      0.000000
      0.000043      0.000004      0.000000
      0.000051      0.000004      0.000000
      0.000059      0.000004      0.000000
      0.000066      0.000004      0.000000
      0.000074      0.000004      0.000000
      0.000082      0.000004      0.000000
      0.000090      0.000004      0.000000
      0.000098      0.000004      0.000000
      0.000105      0.000004      0.000000
      0.000113      0.000004      0.000000
      0.000121      0.000004      0.000000
      0.000129      0.000004      0.000000
      0.000137      0.000004      0.000000
      0.000145      0.000004      0.000000
      0.000152      0.000004      0.000000
      0.000160      0.000004      0.000000
      0.000168      0.000004      0.000000
      0.000176      0.000004      0.000000
      0.000184      0.000004      0.000000
      0.000191      0.000004      0.000000
      0.000199      0.000004      0.000000
      0.000207      0.000004      0.000000
      0.000215      0.000004      0.000000
      0.000223      0.000004      0.000000
      0.000230      0.000004      0.000000
      0.000238      0.000004      0.000000
      0.000246      0.000004      0.000000
      0.000254      0.000004      0.000000
      0.000262      0.000004      0.000000
      0.000270      0.000004      0.000000
      0.000277      0.000004      0.000000
      0.000285      0.000004      0.000000
      0.000293      0.000004      0.000000
      0.000301      0.000004      0.000000
      0.000309      0.000004      0.000000
      0.000316      0.000004      0.000000
      0.000324      0.000004      0.000000
      0.000332      0.000004      0.000000
      0.000340      0.000004      0.000000
      0.000348      0.000004      0.000000
      0.000355      0.000004      0.000000
      0.000363      0.000004      0.000000
      0.000371      0.000004      0.000000
      0.000379      0.000004      0.000000
      0.000387      0.000004      0.000000
      0.000395      0.000004      0.000000
      0.000402      0.000004      0.000000
      0.000410      0.000004      0.000000
      0.000418      0.000004      0.000000
      0.000426      0.000004      0.000000
      0.000434      0.000004      0.000000
      0.000441      0.000004      0.000000
      0.000449      0.000004      0.000000
      0.000457      0.000004      0.000000
      0.000465      0.000004      0.000000
      0.000473      0.000004      0.000000
      0.000480      0.000004      0.000000
      0.000488      0.000004      0.000000
      0.000496      0.000004      0.000000
      0.000504      0.000004      0.000000
      0.000512      0.000004      0.000000
      0.000520      0.000004      0.000000
      0.000527      0.000004      0.000000
      0.000535      0.000004      0.000000
      0.000543      0.000004      0.000000
      0.000551      0.000004      0.000000
      0.000559      0.000004      0.000000
      0.000566      0.000004      0.000000
      0.000574      0.000004      0.000000
      0.000582      0.000004      0.000000
      0.000590      0.000004      0.000000
      0.000598      0.000004      0.000000
      0.000605      0.000004      0.000000
      0.000613      0.000004      0.000000
      0.000621      0.000004      0.000000
      0.000629      0.000004      0.000000
      0.000637      0.000004      0.000000
      0.000645      0.000004      0.000000
      0.000652      0.000004      0.000000
      0.000660      0.000004      0.000000
      0.000668      0.000004      0.000000
      0.000676      0.000004      0.000000
      0.000684      0.000004      0.000000
      0.000691      0.000004      0.000000
      0.000699      0.000004      0.000000
      0.000707      0.000004      0.000000
      0.000715      0.000004      0.000000
      0.000723      0.000004      0.000000
      0.000730      0.000004      0.000000
      0.000738      0.000004      0.000000
      0.000746      0.000004      0.000000
      0.000754      0.000004      0.000000
      0.000762      0.000004      0.000000
      0.000770      0.000004      0.000000
      0.000777      0.000004      0.000000
      0.000785      0.000004      0.000000
      0.000793      0.000004      0.000000
      0.000801      0.000004      0.000000
      0.000809      0.000004      0.000000
      0.000816      0.000004      0.000000
      0.000824      0.000004      0.000000
      0.000832      0.000004      0.000000
      0.000840      0.000004      0.000000
      0.000848      0.000004      0.000000
      0.000855      0.000004      0.000000
      0.000863      0.000004      0.000000
      0.000871      0.000004      0.000000
      0.000879      0.000004      0.000000
      0.000887      0.000004      0.000000
      0.000895      0.000004      0.000000
      0.000902      0.000004      0.000000
      0.000910      0.000004      0.000000
      0.000918      0.000004      0.000000
      0.000926      0.000004      0.000000
      0.000934      0.000004      0.000000
      0.000941      0.000004      0.000000
      0.000949      0.000004      0.000000
      0.000957      0.000004      0.000000
      0.000965      0.000004      0.000000
      0.000973      0.000004      0.000000
      0.000980      0.000004      0.000000
      0.000988      0.000004      0.000000
      0.000996      0.000004      0.000000
      0.000004      0.000012      0.000000
      0.000012      0.000012      0.000000
      0.000020      0.000012      0.000000
      0.000027      0.000012      0.000000
      0.000035      0.000012      0.000000
      0.000043      0.000012      0.000000
      0.000051      0.000012      0.000000
      0.000059      0.000012      0.000000
      0.000066      0.000012      0.000000
      0.000074      0.000012      0.000000
      0.000082      0.000012      0.000000
      0.000090      0.000012      0.000000
      0.000098      0.000012      0.000000
      0.000105      0.000012      0.000000
      0.000113      0.000012      0.000000
      0.000121      0.000012      0.000000
      0.000129      0.000012      0.000000
      0.000137      0.000012      0.000000
      0.000145      0.000012      0.000000
      0.000152      0.000012      0.000000
      0.000160      0.000012      0.000000
      0.000168      0.000012      0.000000
      0.000176      0.000012      0.000000
      0.000184      0.000012      0.000000
      0.000191      0.000012      0.000000
      0.000199      0.000012      0.000000
      0.000207      0.000012      0.000000
      0.000215      0.000012      0.000000
      0.000223      0.000012      0.000000
      0.000230      0.000012      0.000000
      0.000238      0.000012      0.000000
      0.000246      0.000012      0.000000
      0.000254      0.000012      0.000000
      0.000262      0.000012      0.000000
      0.000270      0.000012      0.000000
      0.000277      0.000012      0.000000
      0.000285      0.000012      0.000000
      0.000293      0.000012      0.000000
      0.000301      0.000012      0.000000
      0.000309      0.000012      0.000000
      0.000316      0.000012      0.000000
      0.000324      0.000012      0.000000
      0.000332      0.000012      0.000000
      0.000340      0.000012      0.000000
      0.000348      0.000012      0.000000
      0.000355      0.000012      0.000000
      0.000363      0.000012      0.000000
      0.000371      0.000012      0.000000
      0.000379      0.000012      0.000000
      0.000387      0.000012      0.000000
      0.000395      0.000012      0.000000
      0.000402      0.000012      0.000000
      0.000410      0.000012      0.000000
      0.000418      0.000012      0.000000
      0.000426      0.000012      0.000000
      0.000434      0.000012      0.000000
      0.000441      0.000012      0.000000
      0.000449      0.000012      0.000000
      0.000457      0.000012      0.000000
      0.000465      0.000012      0.000000
      0.000473      0.000012      0.000000
      0.000480      0.000012      0.000000
      0.000488      0.000012      0.000000
      0.000496      0.000012      0.000000
      0.000504      0.000012      0.000000
      0.000512      0.000012      0.000000
      0.000520      0.000012      0.000000
      0.000527      0.000012      0.000000
      0.000535      0.000012      0.000000
      0.000543      0.000012      0.000000
      0.000551      0.000012      0.000000
      0.000559      0.000012      0.000000
      0.000566      0.000012      0.000000
      0.000574      0.000012      0.000000
      0.000582      0.000012      0.000000
      0.000590      0.000012      0.000000
      0.000598      0.000012      0.000000
      0.000605      0.000012      0.000000
      0.000613      0.000012      0.000000
      0.000621      0.000012      0.000000
      0.000629      0.000012      0.000000
      0.000637      0.000012      0.000000
      0.000645      0.000012      0.000000
      0.000652      0.000012      0.000000
      0.000660      0.000012      0.000000
      0.000668      0.000012      0.000000
      0.000676      0.000012      0.000000
      0.000684      0.000012      0.000000
      0.000691      0.000012      0.000000
      0.000699      0.000012      0.000000
      0.000707      0.000012      0.000000
      0.000715      0.000012      0.000000
      0.000723      0.000012      0.000000
      0.000730      0.000012      0.000000
      0.000738      0.000012      0.000000
      0.000746      0.000012      0.000000
      0.000754      0.000012      0.000000
      0.000762      0.000012      0.000000
      0.000770      0.000012      0.000000
      0.000777      0.000012      0.000000
      0.000785      0.000012      0.000000
[...]
POINT_DATA 16384
SCALARS rhoe double
LOOKUP_TABLE default
 0.916689E-013
 0.912127E-013
 0.915522E-013
 0.915248E-013
 0.916438E-013
 0.917114E-013
 0.917945E-013
 0.918731E-013
 0.919526E-013
 0.920316E-013
 0.921103E-013
 0.921888E-013
 0.922671E-013
 0.923450E-013
 0.924226E-013
 0.924999E-013
 0.925769E-013
 0.926534E-013
 0.927296E-013
 0.928053E-013
 0.928806E-013
 0.929554E-013
 0.930297E-013
 0.931034E-013
 0.931764E-013
 0.932489E-013
 0.933207E-013
 0.933917E-013
 0.934619E-013
 0.935313E-013
 0.935998E-013
 0.936674E-013
 0.937339E-013
 0.937994E-013
 0.938637E-013
 0.939269E-013
 0.939887E-013
 0.940492E-013
 0.941084E-013
 0.941660E-013
 0.942221E-013
 0.942765E-013
 0.943293E-013
 0.943802E-013
 0.944294E-013
 0.944766E-013
 0.945218E-013
 0.945649E-013
 0.946060E-013
 0.946448E-013
 0.946813E-013
 0.947156E-013
 0.947474E-013
 0.947768E-013
 0.948037E-013
 0.948281E-013
 0.948499E-013
 0.948690E-013
 0.948855E-013
 0.948993E-013
 0.949103E-013
 0.949186E-013
 0.949242E-013
 0.949270E-013
 0.949270E-013
 0.949242E-013
 0.949186E-013
 0.949103E-013
 0.948993E-013
 0.948855E-013
 0.948690E-013
 0.948499E-013
 0.948281E-013
 0.948037E-013
 0.947768E-013
 0.947474E-013
 0.947156E-013
 0.946814E-013
 0.946448E-013
 0.946060E-013
 0.945650E-013
 0.945218E-013
 0.944766E-013
 0.944294E-013
 0.943803E-013
 0.943293E-013
 0.942765E-013
 0.942221E-013
 0.941660E-013
 0.941084E-013
 0.940493E-013
 0.939888E-013
 0.939269E-013
 0.938638E-013
 0.937994E-013
 0.937340E-013
 0.936674E-013
 0.935999E-013
 0.935313E-013
 0.934620E-013
 0.933917E-013
 0.933207E-013
 0.932489E-013
 0.931765E-013
 0.931034E-013
 0.930297E-013
 0.929554E-013
 0.928807E-013
 0.928054E-013
 0.927296E-013
 0.926535E-013
 0.925769E-013
 0.924999E-013
 0.924226E-013
 0.923450E-013
 0.922671E-013
 0.921889E-013
 0.921104E-013
 0.920316E-013
 0.919526E-013
 0.918731E-013
 0.917945E-013
 0.917114E-013
 0.916438E-013
 0.915248E-013
 0.915522E-013
 0.912127E-013
 0.916689E-013
 0.912127E-013
 0.907582E-013
 0.909420E-013
 0.907730E-013
 0.907647E-013
 0.906948E-013
 0.906455E-013
 0.905904E-013
 0.905370E-013
 0.904834E-013
 0.904300E-013
 0.903769E-013
 0.903239E-013
 0.902711E-013
 0.902185E-013
 0.901662E-013
 0.901140E-013
 0.900621E-013
 0.900105E-013
 0.899592E-013
 0.899082E-013
 0.898576E-013
 0.898072E-013
 0.897573E-013
 0.897078E-013
 0.896586E-013
 0.896100E-013
 0.895619E-013
 0.895142E-013
 0.894672E-013
 0.894207E-013
 0.893749E-013
 0.893298E-013
 0.892854E-013
 0.892417E-013
 0.891989E-013
 0.891569E-013
 0.891158E-013
 0.890757E-013
 0.890365E-013
 0.889985E-013
 0.889615E-013
 0.889257E-013
 0.888911E-013
 0.888577E-013
 0.888256E-013
 0.887949E-013
 0.887656E-013
 0.887377E-013
 0.887113E-013
 0.886865E-013
 0.886632E-013
 0.886416E-013
 0.886216E-013
 0.886033E-013
 0.885867E-013
 0.885719E-013
 0.885589E-013
 0.885477E-013
 0.885383E-013
 0.885308E-013
 0.885251E-013
 0.885214E-013
 0.885195E-013
 0.885195E-013
 0.885214E-013
 0.885251E-013
 0.885308E-013
 0.885383E-013
 0.885477E-013
 0.885589E-013
 0.885719E-013
 0.885867E-013
 0.886033E-013
 0.886216E-013
 0.886416E-013
 0.886632E-013
 0.886865E-013
 0.887113E-013
 0.887377E-013
 0.887656E-013
 0.887949E-013
 0.888256E-013
 0.888577E-013
 0.888911E-013
 0.889257E-013
 0.889615E-013
 0.889985E-013
 0.890366E-013
 0.890757E-013
 0.891158E-013
 0.891569E-013
 0.891989E-013
 0.892417E-013
 0.892854E-013
 0.893298E-013
 0.893749E-013
 0.894207E-013
 0.894672E-013
 0.895143E-013
 0.895619E-013
 0.896100E-013
 0.896587E-013
 0.897078E-013
 0.897573E-013
 0.898072E-013
 0.898576E-013
 0.899082E-013
 0.899592E-013
 0.900106E-013
 0.900622E-013
 0.901140E-013
 0.901662E-013
 0.902185E-013
 0.902711E-013
 0.903239E-013
 0.903769E-013
 0.904301E-013
 0.904834E-013
 0.905370E-013
 0.905904E-013
 0.906455E-013
 0.906948E-013
 0.907647E-013
 0.907730E-013
 0.909420E-013
 0.907582E-013
 0.912127E-013
 0.915522E-013
 0.909420E-013
 0.913280E-013
 0.911902E-013
 0.912852E-013
 0.912916E-013
 0.913272E-013
 0.913541E-013
 0.913832E-013
 0.914117E-013
 0.914402E-013
 0.914686E-013
 0.914969E-013
 0.915250E-013
 0.915530E-013
 0.915810E-013
 0.916087E-013
 0.916364E-013
 0.916639E-013
 0.916913E-013
 0.917184E-013
 0.917455E-013
 0.917723E-013
 0.917989E-013
 0.918253E-013
 0.918515E-013
 0.918775E-013
 0.919031E-013
 0.919285E-013
 0.919536E-013
 0.919784E-013
 0.920028E-013
 0.920269E-013
 0.920506E-013
 0.920739E-013
 0.920967E-013
 0.921191E-013
 0.921410E-013
 0.921624E-013
 0.921833E-013
 0.922036E-013
 0.922234E-013
 0.922425E-013
 0.922610E-013
 0.922788E-013
 0.922959E-013
 0.923123E-013
 0.923279E-013
 0.923428E-013
 0.923569E-013
 0.923702E-013
 0.923826E-013
 0.923941E-013
 0.924048E-013
 0.924146E-013
 0.924234E-013
 0.924313E-013
 0.924383E-013
 0.924442E-013
 0.924492E-013
 0.924533E-013
 0.924563E-013
 0.924583E-013
 0.924593E-013
 0.924593E-013
 0.924583E-013
 0.924563E-013
 0.924532E-013
 0.924492E-013
 0.924442E-013
 0.924382E-013
 0.924313E-013
 0.924234E-013
 0.924145E-013
 0.924048E-013
 0.923941E-013
 0.923826E-013
 0.923701E-013
 0.923569E-013
 0.923428E-013
 0.923279E-013
 0.923123E-013
 0.922959E-013
 0.922787E-013
 0.922609E-013
 0.922425E-013
 0.922233E-013
 0.922036E-013
 0.921833E-013
 0.921624E-013
 0.921410E-013
 0.921191E-013
 0.920967E-013
 0.920739E-013
 0.920506E-013
 0.920269E-013
 0.920028E-013
 0.919784E-013
 0.919536E-013
 0.919285E-013
 0.919031E-013
 0.918774E-013
 0.918515E-013
 0.918253E-013
 0.917989E-013
 0.917723E-013
 0.917454E-013
 0.917184E-013
 0.916912E-013
 0.916639E-013
 0.916364E-013
 0.916087E-013
 0.915809E-013
 0.915530E-013
 0.915250E-013
 0.914968E-013
 0.914686E-013
 0.914402E-013
 0.914117E-013
 0.913832E-013
 0.913541E-013
 0.913271E-013
 0.912916E-013
 0.912852E-013
 0.911902E-013
 0.913280E-013
 0.909420E-013
 0.915522E-013
 0.915248E-013
 0.907730E-013
 0.911902E-013
 0.909720E-013
 0.910419E-013
 0.910010E-013
 0.909969E-013
 0.909821E-013
 0.909702E-013
 0.909576E-013
 0.909452E-013
 0.909329E-013
 0.909206E-013
 0.909083E-013
 0.908961E-013
 0.908839E-013
 0.908718E-013
 0.908598E-013
 0.908478E-013
 0.908359E-013
 0.908240E-013
 0.908123E-013
 0.908006E-013
 0.907890E-013
 0.907775E-013
 0.907661E-013
 0.907548E-013
 0.907436E-013
 0.907325E-013
 0.907216E-013
 0.907108E-013
 0.907002E-013
 0.906897E-013
 0.906793E-013
 0.906692E-013
 0.906592E-013
 0.906495E-013
 0.906399E-013
 0.906306E-013
 0.906215E-013
 0.906127E-013
 0.906041E-013
 0.905957E-013
 0.905877E-013
 0.905799E-013
 0.905725E-013
 0.905653E-013
 0.905585E-013
 0.905520E-013
 0.905459E-013
 0.905401E-013
 0.905347E-013
 0.905296E-013
 0.905250E-013
 0.905207E-013
 0.905169E-013
 0.905134E-013
 0.905104E-013
 0.905078E-013
 0.905056E-013
 0.905039E-013
 0.905025E-013
 0.905017E-013
 0.905012E-013
 0.905012E-013
 0.905017E-013
 0.905025E-013
 0.905039E-013
 0.905056E-013
 0.905078E-013
 0.905104E-013
 0.905134E-013
 0.905169E-013
 0.905207E-013
 0.905250E-013
 0.905296E-013
 0.905347E-013
 0.905401E-013
 0.905459E-013
 0.905520E-013
 0.905585E-013
 0.905653E-013
 0.905725E-013
 0.905799E-013
 0.905877E-013
 0.905957E-013
 0.906041E-013
 0.906127E-013
 0.906215E-013
 0.906306E-013
 0.906400E-013
 0.906495E-013
 0.906593E-013
 0.906692E-013
 0.906794E-013
 0.906897E-013
 0.907002E-013
 0.907108E-013
 0.907216E-013
 0.907325E-013
 0.907436E-013
 0.907548E-013
 0.907661E-013
 0.907775E-013
 0.907890E-013
 0.908006E-013
 0.908123E-013
 0.908240E-013
 0.908359E-013
 0.908478E-013
 0.908598E-013
 0.908718E-013
 0.908839E-013
 0.908961E-013
 0.909083E-013
 0.909206E-013
 0.909329E-013
 0.909452E-013
 0.909576E-013
 0.909702E-013
 0.909821E-013
 0.909969E-013
 0.910010E-013
 0.910419E-013
 0.909720E-013
 0.911902E-013
 0.907730E-013
 0.915248E-013
 0.916438E-013
 0.907647E-013
 0.912852E-013
 0.910419E-013
 0.911466E-013
 0.911166E-013
 0.911316E-013
 0.911334E-013
 0.911386E-013
 0.911431E-013
 0.911476E-013
 0.911521E-013
 0.911567E-013
 0.911611E-013
 0.911656E-013
 0.911701E-013
 0.911745E-013
 0.911789E-013
 0.911833E-013
 0.911876E-013
 0.911920E-013
 0.911963E-013
 0.912006E-013
 0.912048E-013
 0.912090E-013
 0.912132E-013
 0.912173E-013
 0.912214E-013
 0.912254E-013
 0.912294E-013
 0.912334E-013
 0.912373E-013
 0.912411E-013
 0.912449E-013
 0.912486E-013
 0.912523E-013
 0.912558E-013
 0.912593E-013
 0.912627E-013
 0.912661E-013
 0.912693E-013
 0.912724E-013
 0.912755E-013
 0.912784E-013
 0.912813E-013
 0.912840E-013
 0.912866E-013
 0.912891E-013
 0.912915E-013
 0.912937E-013
 0.912959E-013
 0.912978E-013
 0.912997E-013
 0.913014E-013
 0.913029E-013
 0.913044E-013
 0.913056E-013
 0.913067E-013
 0.913077E-013
 0.913085E-013
 0.913091E-013
 0.913096E-013
 0.913099E-013
 0.913101E-013
 0.913101E-013
 0.913099E-013
 0.913096E-013
 0.913091E-013
 0.913085E-013
 0.913077E-013
 0.913067E-013
 0.913056E-013
 0.913044E-013
 0.913029E-013
 0.913014E-013
 0.912997E-013
 0.912978E-013
 0.912959E-013
 0.912937E-013
 0.912915E-013
 0.912891E-013
 0.912866E-013
 0.912840E-013
 0.912813E-013
 0.912784E-013
 0.912755E-013
 0.912724E-013
 0.912693E-013
 0.912661E-013
 0.912627E-013
 0.912593E-013
 0.912558E-013
 0.912522E-013
 0.912486E-013
 0.912449E-013
 0.912411E-013
 0.912373E-013
 0.912334E-013
 0.912294E-013
 0.912254E-013
 0.912214E-013
 0.912173E-013
 0.912132E-013
 0.912090E-013
 0.912048E-013
 0.912005E-013
 0.911963E-013
 0.911920E-013
 0.911876E-013
 0.911833E-013
 0.911789E-013
 0.911745E-013
 0.911701E-013
 0.911656E-013
 0.911611E-013
 0.911566E-013
 0.911521E-013
 0.911476E-013
 0.911431E-013
 0.911386E-013
 0.911334E-013
 0.911316E-013
 0.911166E-013
 0.911465E-013
 0.910419E-013
 0.912852E-013
 0.907647E-013
 0.916438E-013
 0.917114E-013
 0.906948E-013
 0.912916E-013
 0.910010E-013
 0.911166E-013
 0.910747E-013
 0.910854E-013
 0.910807E-013
 0.910801E-013
 0.910785E-013
 0.910771E-013
 0.910756E-013
 0.910742E-013
 0.910728E-013
 0.910714E-013
 0.910700E-013
 0.910686E-013
 0.910672E-013
 0.910659E-013
 0.910645E-013
 0.910631E-013
 0.910618E-013
 0.910604E-013
 0.910591E-013
 0.910578E-013
 0.910565E-013
 0.910552E-013
 0.910539E-013
 0.910526E-013
 0.910514E-013
 0.910501E-013
 0.910489E-013
 0.910477E-013
 0.910465E-013
 0.910454E-013
 0.910442E-013
 0.910431E-013
 0.910420E-013
 0.910409E-013
 0.910399E-013
 0.910389E-013
 0.910379E-013
 0.910369E-013
 0.910360E-013
 0.910351E-013
 0.910343E-013
 0.910334E-013
 0.910327E-013
 0.910319E-013
 0.910312E-013
 0.910305E-013
 0.910299E-013
 0.910294E-013
 0.910288E-013
 0.910283E-013
 0.910279E-013
 0.910275E-013
 0.910271E-013
 0.910269E-013
 0.910266E-013
 0.910264E-013
 0.910263E-013
 0.910262E-013
 0.910261E-013
 0.910261E-013
 0.910262E-013
 0.910263E-013
 0.910264E-013
 0.910266E-013
 0.910269E-013
 0.910272E-013
 0.910275E-013
 0.910279E-013
 0.910283E-013
 0.910288E-013
 0.910294E-013
 0.910299E-013
 0.910305E-013
 0.910312E-013
 0.910319E-013
 0.910327E-013
 0.910334E-013
 0.910343E-013
 0.910351E-013
 0.910360E-013
 0.910369E-013
 0.910379E-013
 0.910389E-013
 0.910399E-013
 0.910409E-013
 0.910420E-013
 0.910431E-013
 0.910442E-013
 0.910454E-013
 0.910465E-013
 0.910477E-013
 0.910489E-013
 0.910501E-013
 0.910514E-013
 0.910526E-013
 0.910539E-013
 0.910552E-013
 0.910565E-013
 0.910578E-013
 0.910591E-013
 0.910604E-013
 0.910618E-013
 0.910631E-013
 0.910645E-013
 0.910659E-013
 0.910672E-013
 0.910686E-013
 0.910700E-013
 0.910714E-013
 0.910728E-013
 0.910742E-013
 0.910757E-013
 0.910771E-013
 0.910785E-013
 0.910801E-013
 0.910807E-013
 0.910854E-013
 0.910747E-013
 0.911166E-013
 0.910010E-013
 0.912916E-013
 0.906949E-013
 0.917114E-013
 0.917945E-013
 0.906455E-013
 0.913272E-013
 0.909969E-013
 0.911316E-013
 0.910854E-013
 0.910998E-013
 0.910965E-013
 0.910978E-013
 0.910980E-013
 0.910984E-013
 0.910988E-013
 0.910992E-013
 0.910996E-013
 0.911000E-013
 0.911004E-013
 0.911007E-013
 0.911011E-013
 0.911015E-013
 0.911019E-013
 0.911022E-013
 0.911026E-013
 0.911030E-013
 0.911034E-013
 0.911037E-013
 0.911041E-013
 0.911044E-013
 0.911048E-013
 0.911051E-013
 0.911055E-013
 0.911058E-013
 0.911062E-013
 0.911065E-013
 0.911068E-013
 0.911072E-013
 0.911075E-013
 0.911078E-013
 0.911081E-013
 0.911084E-013
 0.911087E-013
 0.911090E-013
 0.911092E-013
 0.911095E-013
 0.911098E-013
 0.911100E-013
 0.911103E-013
 0.911105E-013
 0.911107E-013
 0.911109E-013
 0.911111E-013
 0.911113E-013
 0.911115E-013
 0.911116E-013
 0.911118E-013
 0.911119E-013
 0.911121E-013
 0.911122E-013
 0.911123E-013
 0.911123E-013
 0.911124E-013
 0.911125E-013
 0.911125E-013
 0.911125E-013
 0.911126E-013
 0.911126E-013
 0.911125E-013
 0.911125E-013
 0.911125E-013
 0.911124E-013
 0.911123E-013
 0.911123E-013
 0.911122E-013
 0.911121E-013
 0.911119E-013
 0.911118E-013
 0.911116E-013
 0.911115E-013
 0.911113E-013
 0.911111E-013
 0.911109E-013
 0.911107E-013
 0.911105E-013
 0.911103E-013
 0.911100E-013
 0.911098E-013
 0.911095E-013
 0.911092E-013
 0.911090E-013
 0.911087E-013
 0.911084E-013
 0.911081E-013
 0.911078E-013
 0.911075E-013
 0.911072E-013
 0.911068E-013
 0.911065E-013
 0.911062E-013
 0.911058E-013
 0.911055E-013
 0.911051E-013
 0.911048E-013
 0.911044E-013
 0.911041E-013
 0.911037E-013
 0.911034E-013
 0.911030E-013
 0.911026E-013
 0.911022E-013
 0.911019E-013
 0.911015E-013
 0.911011E-013
 0.911007E-013
 0.911003E-013
 0.911000E-013
 0.910996E-013
 0.910992E-013
 0.910988E-013
 0.910984E-013
 0.910980E-013
 0.910978E-013
 0.910965E-013
 0.910998E-013
 0.910854E-013
 0.911316E-013
 0.909969E-013
 0.913271E-013
 0.906455E-013
 0.917945E-013
 0.918731E-013
 0.905904E-013
 0.913541E-013
 0.909821E-013
 0.911334E-013
 0.910807E-013
 0.910965E-013
 0.910922E-013
 0.910931E-013
 0.910928E-013
 0.910927E-013
 0.910926E-013
 0.910925E-013
 0.910924E-013
 0.910923E-013
 0.910923E-013
 0.910922E-013
 0.910921E-013
 0.910920E-013
 0.910919E-013
 0.910918E-013
 0.910917E-013
 0.910916E-013
 0.910915E-013
 0.910914E-013
 0.910914E-013
 0.910913E-013
 0.910912E-013
 0.910911E-013
 0.910910E-013
 0.910909E-013
 0.910909E-013
 0.910908E-013
 0.910907E-013
 0.910906E-013
 0.910906E-013
 0.910905E-013
 0.910904E-013
 0.910904E-013
 0.910903E-013
 0.910902E-013
 0.910902E-013
 0.910901E-013
 0.910900E-013
 0.910900E-013
 0.910899E-013
 0.910899E-013
 0.910898E-013
 0.910898E-013
 0.910898E-013
 0.910897E-013
 0.910897E-013
 0.910896E-013
 0.910896E-013
 0.910896E-013
 0.910896E-013
 0.910895E-013
 0.910895E-013
 0.910895E-013
 0.910895E-013
 0.910895E-013
 0.910895E-013
 0.910895E-013
 0.910894E-013
 0.910894E-013
 0.910895E-013
 0.910895E-013
 0.910895E-013
 0.910895E-013
 0.910895E-013
 0.910895E-013
 0.910895E-013
 0.910896E-013
 0.910896E-013
 0.910896E-013
 0.910896E-013
 0.910897E-013
 0.910897E-013
 0.910898E-013
 0.910898E-013
 0.910898E-013
 0.910899E-013
 0.910899E-013
 0.910900E-013
 0.910900E-013
 0.910901E-013
 0.910902E-013
 0.910902E-013
 0.910903E-013
 0.910904E-013
 0.910904E-013
 0.910905E-013
 0.910906E-013
 0.910906E-013
 0.910907E-013
 0.910908E-013
 0.910909E-013
 0.910909E-013
 0.910910E-013
 0.910911E-013
 0.910912E-013
 0.910913E-013
 0.910914E-013
 0.910914E-013
 0.910915E-013
 0.910916E-013
 0.910917E-013
 0.910918E-013
 0.910919E-013
 0.910920E-013
 0.910921E-013
 0.910922E-013
 0.910923E-013
 0.910923E-013
 0.910924E-013
 0.910925E-013
 0.910926E-013
 0.910927E-013
 0.910928E-013
 0.910931E-013
 0.910922E-013
 0.910965E-013
 0.910807E-013
 0.911334E-013
 0.909821E-013
 0.913541E-013
 0.905904E-013
 0.918732E-013
 0.919526E-013
 0.905370E-013
 0.913832E-013
 0.909702E-013
 0.911386E-013
 0.910801E-013
 0.910978E-013
 0.910931E-013
 0.910942E-013
 0.910940E-013
 0.910941E-013
 0.910941E-013
 0.910941E-013
 0.910941E-013
 0.910942E-013
 0.910942E-013
 0.910942E-013
 0.910942E-013
 0.910942E-013
 0.910943E-013
 0.910943E-013
 0.910943E-013
 0.910943E-013
 0.910944E-013
 0.910944E-013
 0.910944E-013
 0.910944E-013
 0.910944E-013
 0.910945E-013
 0.910945E-013
 0.910945E-013
 0.910945E-013
 0.910945E-013
 0.910946E-013
 0.910946E-013
 0.910946E-013
 0.910946E-013
 0.910946E-013
 0.910947E-013
 0.910947E-013
 0.910947E-013
 0.910947E-013
 0.910947E-013
 0.910948E-013
 0.910948E-013
 0.910948E-013
 0.910948E-013
 0.910948E-013
 0.910949E-013
 0.910949E-013
 0.910949E-013
 0.910949E-013
 0.910949E-013
 0.910949E-013
 0.910949E-013
 0.910949E-013
 0.910950E-013
 0.910950E-013
 0.910950E-013
 0.910950E-013
 0.910950E-013
 0.910950E-013
 0.910950E-013
 0.910950E-013
 0.910950E-013
 0.910950E-013
 0.910950E-013
 0.910950E-013
 0.910950E-013
 0.910950E-013
 0.910950E-013
 0.910950E-013
 0.910949E-013
 0.910949E-013
 0.910949E-013
 0.910949E-013
 0.910949E-013
 0.910949E-013
 0.910949E-013
 0.910949E-013
 0.910948E-013
 0.910948E-013
 0.910948E-013
 0.910948E-013
 0.910948E-013
 0.910947E-013
 0.910947E-013
 0.910947E-013
 0.910947E-013
 0.910947E-013
 0.910946E-013
 0.910946E-013
 0.910946E-013
 0.910946E-013
 0.910946E-013
 0.910945E-013
 0.910945E-013
 0.910945E-013
 0.910945E-013
 0.910945E-013
 0.910944E-013
 0.910944E-013
 0.910944E-013
 0.910944E-013
 0.910944E-013
 0.910943E-013
 0.910943E-013
 0.910943E-013
 0.910943E-013
 0.910942E-013
 0.910942E-013
 0.910942E-013
 0.910942E-013
 0.910942E-013
 0.910941E-013
 0.910941E-013
 0.910941E-013
 0.910941E-013
 0.910940E-013
 0.910942E-013
 0.910931E-013
 0.910978E-013
 0.910801E-013
 0.911386E-013
 0.909702E-013
 0.913832E-013
 0.905370E-013
 0.919526E-013
 0.920316E-013
 0.904834E-013
 0.914117E-013
 0.909576E-013
 0.911431E-013
 0.910785E-013
 0.910980E-013
 0.910928E-013
 0.910940E-013
 0.910937E-013
 0.910938E-013
 0.910938E-013
 0.910938E-013
 0.910938E-013
 0.910938E-013
 0.910938E-013
 0.910938E-013
 0.910938E-013
 0.910938E-013
 0.910938E-013
 0.910938E-013
 0.910938E-013
 0.910938E-013
 0.910937E-013
 0.910937E-013
 0.910937E-013
 0.910937E-013
 0.910937E-013
 0.910937E-013
 0.910937E-013
 0.910937E-013
 0.910937E-013
 0.910937E-013
 0.910937E-013
 0.910937E-013
 0.910937E-013
 0.910937E-013
 0.910938E-013
 0.910938E-013
 0.910938E-013
 0.910938E-013
 0.910938E-013
 0.910938E-013
 0.910938E-013
 0.910938E-013
 0.910938E-013
 0.910938E-013
 0.910938E-013
 0.910938E-013
 0.910938E-013
 0.910938E-013
 0.910938E-013
 0.910938E-013
 0.910938E-013
 0.910938E-013
 0.910938E-013
 0.910938E-013
 0.910938E-013
 0.910938E-013
 0.910938E-013
 0.910938E-013
 0.910938E-013
 0.910938E-013
 0.910938E-013
 0.910938E-013
 0.910938E-013
 0.910938E-013
 0.910938E-013
 0.910938E-013
 0.910938E-013
 0.910938E-013
 0.910938E-013
 0.910938E-013
 0.910938E-013
 0.910938E-013
 0.910938E-013
 0.910938E-013
 0.910938E-013
 0.910938E-013
 0.910938E-013
 0.910938E-013
 0.910938E-013
 0.910938E-013
 0.910938E-013
 0.910938E-013
 0.910938E-013
 0.910938E-013
 0.910938E-013
 0.910938E-013
 0.910938E-013
 0.910938E-013
 0.910937E-013
 0.910937E-013
 0.910937E-013
 0.910937E-013
 0.910937E-013
 0.910937E-013
 0.910937E-013
 0.910937E-013
 0.910937E-013
 0.910937E-013
 0.910937E-013
 0.910937E-013
 0.910937E-013
 0.910937E-013
 0.910938E-013
 0.910938E-013
 0.910938E-013
 0.910938E-013
 0.910938E-013
 0.910938E-013
 0.910938E-013
 0.910938E-013
 0.910938E-013
 0.910938E-013
 0.910938E-013
 0.910938E-013
 0.910938E-013
 0.910937E-013
 0.910940E-013
 0.910928E-013
 0.910980E-013
 0.910785E-013
 0.911431E-013
 0.909576E-013
 0.914117E-013
 0.904834E-013
 0.920316E-013
 0.921103E-013
 0.904300E-013
 0.914402E-013
 0.909452E-013
 0.911476E-013
 0.910771E-013
 0.910984E-013
 0.910927E-013
 0.910941E-013
 0.910938E-013
 0.910939E-013
 0.910938E-013
 0.910938E-013
 0.910938E-013
 0.910939E-013
 0.910939E-013
 0.910939E-013
 0.910939E-013
 0.910939E-013
 0.910939E-013
 0.910939E-013
 0.910939E-013
 0.910939E-013
 0.910939E-013
 0.910939E-013
 0.910939E-013
 0.910939E-013
 0.910939E-013
 0.910939E-013
 0.910939E-013
 0.910939E-013
 0.910939E-013
 0.910939E-013
 0.910939E-013
 0.910939E-013
 0.910939E-013
 0.910939E-013
 0.910939E-013
 0.910939E-013
 0.910940E-013
 0.910940E-013
 0.910940E-013
 0.910940E-013
 0.910940E-013
 0.910940E-013
 0.910940E-013
 0.910940E-013
 0.910940E-013
 0.910940E-013