# vtk DataFile Version 3.0
Solution data
ASCII
DATASET STRUCTURED_GRID
DIMENSIONS 128 128 1
POINTS 16384  double
      0.000004      0.000004      0.000000
      0.000012      0.000004      0.000000
      0.000020      0.000004      0.000000
      0.000027      0.000004      0.000000
      0.000035      0.000004      0.000000
      0.000043      0.000004      0.000000
      0.000051      0.000004      0.000000
      0.000059      0.000004      0.000000
      0.000066      0.000004      0.000000
      0.000074      0.000004      0.000000
      0.000082      0.000004      0.000000
      0.000090      0.000004      0.000000
      0.000098      0.000004      0.000000
      0.000105      0.000004      0.000000
      0.000113      0.000004      0.000000
      0.000121      0.000004      0.000000
      0.000129      0.000004      0.000000
      0.000137      0.000004      0.000000
      0.000145      0.000004      0.000000
      0.000152      0.000004      0.000000
      0.000160      0.000004      0.000000
      0.000168      0.000004      0.000000
      0.000176      0.000004      0.000000
      0.000184      0.000004      0.000000
      0.000191      0.000004      0.000000
      0.000199      0.000004      0.000000
      0.000207      0.000004      0.000000
      0.000215      0.000004      0.000000
      0.000223      0.000004      0.000000
      0.000230      0.000004      0.000000
      0.000238      0.000004      0.000000
      0.000246      0.000004      0.000000
      0.000254      0.000004      0.000000
      0.000262      0.000004      0.000000
      0.000270      0.000004      0.000000
      0.000277      0.000004      0.000000
      0.000285      0.000004      0.000000
      0.000293      0.000004      0.000000
      0.000301      0.000004      0.000000
      0.000309      0.000004      0.000000
      0.000316      0.000004      0.000000
      0.000324      0.000004      0.000000
      0.000332      0.000004      0.000000
      0.000340      0.000004      0.000000
      0.000348      0.000004      0.000000
      0.000355      0.000004      0.000000
      0.000363      0.000004      0.000000
      0.000371      0.000004      0.000000
      0.000379      0.000004      0.000000
      0.000387      0.000004      0.000000
      0.000395      0.000004      0.000000
      0.000402      0.000004      0.000000
      0.000410      0.000004      0.000000
      0.000418      0.000004      0.000000
      0.000426      0.000004      0.000000
      0.000434      0.000004      0.000000
      0.000441      0.000004      0.000000
      0.000449      0.000004      0.000000
      0.000457      0.000004      0.000000
      0.000465      0.000004      0.000000
      0.000473      0.000004      0.000000
      0.000480      0.000004      0.000000
      0.000488      0.000004      0.000000
      0.000496      0.000004      0.000000
      0.000504      0.000004      0.000000
      0.000512      0.000004      0.000000
      0.000520      0.000004      0.000000
      0.000527      0.000004      0.000000
      0.000535      0.000004      0.000000
      0.000543      0.000004      0.000000
      0.000551      0.000004      0.000000
      0.000559      0.000004      0.000000
      0.000566      0.000004      0.000000
      0.000574      0.000004      0.000000
      0.000582      0.000004      0.000000
      0.000590      0.000004      0.000000
      0.000598      0.000004      0.000000
      0.000605      0.000004      0.000000
      0.000613      0.000004      0.000000
      0.000621      0.000004      0.000000
      0.000629      0.000004      0.000000
      0.000637      0.000004      0.000000
      0.000645      0.000004      0.000000
      0.000652      0.000004      0.000000
      0.000660      0.000004      0.000000
      0.000668      0.000004      0.000000
      0.000676      0.000004      0.000000
      0.000684      0.000004      0.000000
      0.000691      0.000004      0.000000
      0.000699      0.000004      0.000000
      0.000707      0.000004      0.000000
      0.000715      0.000004      0.000000
      0.000723      0.000004      0.000000
      0.000730      0.000004      0.000000
      0.000738      0.000004      0.000000
      0.000746      0.000004      0.000000
      0.000754      0.000004      0.000000
      0.000762      0.000004      0.000000
      0.000770      0.000004      0.000000
      0.000777      0.000004      0.000000
      0.000785      0.000004      0.000000
      0.000793      0.000004      0.000000
      0.000801      0.000004      0.000000
      0.000809      0.000004      0.000000
      0.000816      0.000004      0.000000
      0.000824      0.000004      0.000000
      0.000832      0.000004      0.000000
      0.000840      0.000004      0.000000
      0.000848      0.000004      0.000000
      0.000855      0.000004      0.000000
      0.000863      0.000004      0.000000
      0.000871      0.000004      0.000000
      0.000879      0.000004      0.000000
      0.000887      0.000004      0.000000
      0.000895      0.000004      0.000000
      0.000902      0.000004      0.000000
      0.000910      0.000004      0.000000
      0.000918      0.000004      0.000000
      0.000926      0.000004      0.000000
      0.000934      0.000004      0.000000
      0.000941      0.000004      0.000000
      0.000949      0.000004      0.000000
      0.000957      0.000004      0.000000
      0.000965      0.000004      0.000000
      0.000973      0.000004      0.000000
      0.000980      0.000004      0.000000
      0.000988      0.000004      0.000000
      0.000996      0.000004      0.000000
      0.000004      0.000012      0.000000
      0.000012      0.000012      0.000000
      0.000020      0.000012      0.000000
      0.000027      0.000012      0.000000
      0.000035      0.000012      0.000000
      0.000043      0.000012      0.000000
      0.000051      0.000012      0.000000
      0.000059      0.000012      0.000000
      0.000066      0.000012      0.000000
      0.000074      0.000012      0.000000
      0.000082      0.000012      0.000000
      0.000090      0.000012      0.000000
      0.000098      0.000012      0.000000
      0.000105      0.000012      0.000000
      0.000113      0.000012      0.000000
      0.000121      0.000012      0.000000
      0.000129      0.000012      0.000000
      0.000137      0.000012      0.000000
      0.000145      0.000012      0.000000
      0.000152      0.000012      0.000000
      0.000160      0.000012      0.000000
      0.000168      0.000012      0.000000
      0.000176      0.000012      0.000000
      0.000184      0.000012      0.000000
      0.000191      0.000012      0.000000
      0.000199      0.000012      0.000000
      0.000207      0.000012      0.000000
      0.000215      0.000012      0.000000
      0.000223      0.000012      0.000000
      0.000230      0.000012      0.000000
      0.000238      0.000012      0.000000
      0.000246      0.000012      0.000000
      0.000254      0.000012      0.000000
      0.000262      0.000012      0.000000
      0.000270      0.000012      0.000000
      0.000277      0.000012      0.000000
      0.000285      0.000012      0.000000
      0.000293      0.000012      0.000000
      0.000301      0.000012      0.000000
      0.000309      0.000012      0.000000
      0.000316      0.000012      0.000000
      0.000324      0.000012      0.000000
      0.000332      0.000012      0.000000
      0.000340      0.000012      0.000000
      0.000348      0.000012      0.000000
      0.000355      0.000012      0.000000
      0.000363      0.000012      0.000000
      0.000371      0.000012      0.000000
      0.000379      0.000012      0.000000
      0.000387      0.000012      0.000000
      0.000395      0.000012      0.000000
      0.000402      0.000012      0.000000
      0.000410      0.000012      0.000000
      0.000418      0.000012      0.000000
      0.000426      0.000012      0.000000
      0.000434      0.000012      0.000000
      0.000441      0.000012      0.000000
      0.000449      0.000012      0.000000
      0.000457      0.000012      0.000000
      0.000465      0.000012      0.000000
      0.000473      0.000012      0.000000
      0.000480      0.000012      0.000000
      0.000488      0.000012      0.000000
      0.000496      0.000012      0.000000
      0.000504      0.000012      0.000000
      0.000512      0.000012      0.000000
      0.000520      0.000012      0.000000
      0.000527      0.000012      0.000000
      0.000535      0.000012      0.000000
      0.000543      0.000012      0.000000
      0.000551      0.000012      0.000000
      0.000559      0.000012      0.000000
      0.000566      0.000012      0.000000
      0.000574      0.000012      0.000000
      0.000582      0.000012      0.000000
      0.000590      0.000012      0.000000
      0.000598      0.000012      0.000000
      0.000605      0.000012      0.000000
      0.000613      0.000012      0.000000
      0.000621      0.000012      0.000000
      0.000629      0.000012      0.000000
      0.000637      0.000012      0.000000
      0.000645      0.000012      0.000000
      0.000652      0.000012      0.000000
      0.000660      0.000012      0.000000
      0.000668      0.000012      0.000000
      0.000676      0.000012      0.000000
      0.000684      0.000012      0.000000
      0.000691      0.000012      0.000000
      0.000699      0.000012      0.000000
      0.000707      0.000012      0.000000
      0.000715      0.000012      0.000000
      0.000723      0.000012      0.000000
      0.000730      0.000012      0.000000
      0.000738      0.000012      0.000000
      0.000746      0.000012      0.000000
      0.000754      0.000012      0.000000
      0.000762      0.000012      0.000000
      0.000770      0.000012      0.000000
      0.000777      0.000012      0.000000
      0.000785      0.000012      0.000000
[...]
POINT_DATA 16384
SCALARS rhoe double
LOOKUP_TABLE default
 0.916306E-013
 0.912529E-013
 0.915402E-013
 0.915580E-013
 0.916679E-013
 0.917505E-013
 0.918398E-013
 0.919272E-013
 0.920148E-013
 0.921020E-013
 0.921889E-013
 0.922756E-013
 0.923620E-013
 0.924480E-013
 0.925338E-013
 0.926191E-013
 0.927041E-013
 0.927887E-013
 0.928729E-013
 0.929566E-013
 0.930399E-013
 0.931226E-013
 0.932047E-013
 0.932863E-013
 0.933672E-013
 0.934474E-013
 0.935269E-013
 0.936056E-013
 0.936834E-013
 0.937603E-013
 0.938363E-013
 0.939112E-013
 0.939850E-013
 0.940577E-013
 0.941291E-013
 0.941991E-013
 0.942678E-013
 0.943351E-013
 0.944008E-013
 0.944648E-013
 0.945272E-013
 0.945877E-013
 0.946464E-013
 0.947031E-013
 0.947578E-013
 0.948103E-013
 0.948606E-013
 0.949087E-013
 0.949544E-013
 0.949976E-013
 0.950383E-013
 0.950765E-013
 0.951120E-013
 0.951447E-013
 0.951747E-013
 0.952019E-013
 0.952262E-013
 0.952475E-013
 0.952659E-013
 0.952813E-013
 0.952936E-013
 0.953029E-013
 0.953091E-013
 0.953122E-013
 0.953122E-013
 0.953091E-013
 0.953029E-013
 0.952936E-013
 0.952813E-013
 0.952659E-013
 0.952475E-013
 0.952262E-013
 0.952019E-013
 0.951747E-013
 0.951448E-013
 0.951120E-013
 0.950765E-013
 0.950384E-013
 0.949976E-013
 0.949544E-013
 0.949087E-013
 0.948607E-013
 0.948103E-013
 0.947578E-013
 0.947031E-013
 0.946464E-013
 0.945877E-013
 0.945272E-013
 0.944648E-013
 0.944008E-013
 0.943351E-013
 0.942679E-013
 0.941992E-013
 0.941291E-013
 0.940577E-013
 0.939850E-013
 0.939112E-013
 0.938363E-013
 0.937603E-013
 0.936834E-013
 0.936056E-013
 0.935269E-013
 0.934474E-013
 0.933672E-013
 0.932863E-013
 0.932048E-013
 0.931226E-013
 0.930399E-013
 0.929567E-013
 0.928729E-013
 0.927888E-013
 0.927042E-013
 0.926192E-013
 0.925338E-013
 0.924481E-013
 0.923620E-013
 0.922756E-013
 0.921890E-013
 0.921020E-013
 0.920148E-013
 0.919272E-013
 0.918398E-013
 0.917505E-013
 0.916679E-013
 0.915580E-013
 0.915402E-013
 0.912529E-013
 0.916306E-013
 0.912529E-013
 0.907845E-013
 0.909446E-013
 0.908055E-013
 0.907811E-013
 0.907205E-013
 0.906699E-013
 0.906170E-013
 0.905648E-013
 0.905127E-013
 0.904608E-013
 0.904090E-013
 0.903574E-013
 0.903060E-013
 0.902548E-013
 0.902038E-013
 0.901530E-013
 0.901025E-013
 0.900522E-013
 0.900022E-013
 0.899524E-013
 0.899030E-013
 0.898539E-013
 0.898052E-013
 0.897569E-013
 0.897089E-013
 0.896614E-013
 0.896144E-013
 0.895679E-013
 0.895219E-013
 0.894765E-013
 0.894317E-013
 0.893875E-013
 0.893441E-013
 0.893014E-013
 0.892594E-013
 0.892183E-013
 0.891781E-013
 0.891388E-013
 0.891005E-013
 0.890631E-013
 0.890269E-013
 0.889918E-013
 0.889578E-013
 0.889251E-013
 0.888936E-013
 0.888635E-013
 0.888347E-013
 0.888073E-013
 0.887814E-013
 0.887570E-013
 0.887342E-013
 0.887129E-013
 0.886933E-013
 0.886753E-013
 0.886590E-013
 0.886445E-013
 0.886317E-013
 0.886207E-013
 0.886115E-013
 0.886041E-013
 0.885985E-013
 0.885948E-013
 0.885929E-013
 0.885929E-013
 0.885948E-013
 0.885985E-013
 0.886041E-013
 0.886115E-013
 0.886207E-013
 0.886317E-013
 0.886445E-013
 0.886590E-013
 0.886753E-013
 0.886933E-013
 0.887129E-013
 0.887342E-013
 0.887570E-013
 0.887814E-013
 0.888074E-013
 0.888347E-013
 0.888635E-013
 0.888936E-013
 0.889251E-013
 0.889578E-013
 0.889918E-013
 0.890269E-013
 0.890632E-013
 0.891005E-013
 0.891388E-013
 0.891781E-013
 0.892184E-013
 0.892595E-013
 0.893014E-013
 0.893441E-013
 0.893876E-013
 0.894317E-013
 0.894765E-013
 0.895219E-013
 0.895679E-013
 0.896144E-013
 0.896615E-013
 0.897090E-013
 0.897569E-013
 0.898053E-013
 0.898540E-013
 0.899031E-013
 0.899525E-013
 0.900022E-013
 0.900522E-013
 0.901025E-013
 0.901530E-013
 0.902038E-013
 0.902548E-013
 0.903060E-013
 0.903574E-013
 0.904090E-013
 0.904608E-013
 0.905127E-013
 0.905649E-013
 0.906171E-013
 0.906699E-013
 0.907205E-013
 0.907812E-013
 0.908055E-013
 0.909446E-013
 0.907845E-013
 0.912529E-013
 0.915402E-013
 0.909446E-013
 0.912761E-013
 0.911770E-013
 0.912415E-013
 0.912539E-013
 0.912804E-013
 0.913035E-013
 0.913272E-013
 0.913507E-013
 0.913742E-013
 0.913975E-013
 0.914208E-013
 0.914440E-013
 0.914671E-013
 0.914901E-013
 0.915130E-013
 0.915358E-013
 0.915584E-013
 0.915810E-013
 0.916034E-013
 0.916257E-013
 0.916478E-013
 0.916697E-013
 0.916915E-013
 0.917131E-013
 0.917345E-013
 0.917557E-013
 0.917767E-013
 0.917974E-013
 0.918178E-013
 0.918380E-013
 0.918579E-013
 0.918775E-013
 0.918967E-013
 0.919156E-013
 0.919341E-013
 0.919522E-013
 0.919699E-013
 0.919871E-013
 0.920039E-013
 0.920203E-013
 0.920361E-013
 0.920514E-013
 0.920661E-013
 0.920803E-013
 0.920938E-013
 0.921068E-013
 0.921191E-013
 0.921308E-013
 0.921417E-013
 0.921520E-013
 0.921616E-013
 0.921704E-013
 0.921785E-013
 0.921858E-013
 0.921924E-013
 0.921982E-013
 0.922031E-013
 0.922073E-013
 0.922106E-013
 0.922131E-013
 0.922147E-013
 0.922156E-013
 0.922156E-013
 0.922147E-013
 0.922131E-013
 0.922106E-013
 0.922072E-013
 0.922031E-013
 0.921981E-013
 0.921924E-013
 0.921858E-013
 0.921785E-013
 0.921704E-013
 0.921616E-013
 0.921520E-013
 0.921417E-013
 0.921307E-013
 0.921191E-013
 0.921068E-013
 0.920938E-013
 0.920802E-013
 0.920661E-013
 0.920513E-013
 0.920360E-013
 0.920202E-013
 0.920039E-013
 0.919871E-013
 0.919699E-013
 0.919522E-013
 0.919340E-013
 0.919155E-013
 0.918967E-013
 0.918774E-013
 0.918579E-013
 0.918380E-013
 0.918178E-013
 0.917973E-013
 0.917766E-013
 0.917557E-013
 0.917345E-013
 0.917131E-013
 0.916915E-013
 0.916697E-013
 0.916477E-013
 0.916256E-013
 0.916034E-013
 0.915809E-013
 0.915584E-013
 0.915357E-013
 0.915129E-013
 0.914901E-013
 0.914671E-013
 0.914440E-013
 0.914208E-013
 0.913975E-013
 0.913741E-013
 0.913507E-013
 0.913272E-013
 0.913035E-013
 0.912804E-013
 0.912539E-013
 0.912415E-013
 0.911770E-013
 0.912761E-013
 0.909446E-013
 0.915402E-013
 0.915580E-013
 0.908055E-013
 0.911770E-013
 0.910140E-013
 0.910569E-013
 0.910339E-013
 0.910289E-013
 0.910196E-013
 0.910113E-013
 0.910028E-013
 0.909944E-013
 0.909860E-013
 0.909777E-013
 0.909693E-013
 0.909610E-013
 0.909528E-013
 0.909446E-013
 0.909364E-013
 0.909282E-013
 0.909201E-013
 0.909121E-013
 0.909041E-013
 0.908961E-013
 0.908883E-013
 0.908804E-013
 0.908727E-013
 0.908650E-013
 0.908574E-013
 0.908499E-013
 0.908424E-013
 0.908351E-013
 0.908278E-013
 0.908207E-013
 0.908137E-013
 0.908067E-013
 0.908000E-013
 0.907933E-013
 0.907868E-013
 0.907805E-013
 0.907743E-013
 0.907682E-013
 0.907624E-013
 0.907567E-013
 0.907512E-013
 0.907459E-013
 0.907408E-013
 0.907360E-013
 0.907313E-013
 0.907269E-013
 0.907227E-013
 0.907188E-013
 0.907151E-013
 0.907116E-013
 0.907085E-013
 0.907055E-013
 0.907029E-013
 0.907006E-013
 0.906985E-013
 0.906967E-013
 0.906952E-013
 0.906940E-013
 0.906931E-013
 0.906925E-013
 0.906922E-013
 0.906922E-013
 0.906925E-013
 0.906931E-013
 0.906940E-013
 0.906952E-013
 0.906967E-013
 0.906985E-013
 0.907006E-013
 0.907029E-013
 0.907056E-013
 0.907085E-013
 0.907116E-013
 0.907151E-013
 0.907188E-013
 0.907227E-013
 0.907269E-013
 0.907313E-013
 0.907360E-013
 0.907408E-013
 0.907459E-013
 0.907512E-013
 0.907567E-013
 0.907624E-013
 0.907682E-013
 0.907743E-013
 0.907805E-013
 0.907868E-013
 0.907933E-013
 0.908000E-013
 0.908068E-013
 0.908137E-013
 0.908207E-013
 0.908278E-013
 0.908351E-013
 0.908424E-013
 0.908499E-013
 0.908574E-013
 0.908650E-013
 0.908727E-013
 0.908804E-013
 0.908883E-013
 0.908962E-013
 0.909041E-013
 0.909121E-013
 0.909202E-013
 0.909282E-013
 0.909364E-013
 0.909446E-013
 0.909528E-013
 0.909611E-013
 0.909693E-013
 0.909777E-013
 0.909860E-013
 0.909944E-013
 0.910028E-013
 0.910113E-013
 0.910196E-013
 0.910289E-013
 0.910339E-013
 0.910569E-013
 0.910140E-013
 0.911770E-013
 0.908055E-013
 0.915580E-013
 0.916679E-013
 0.907811E-013
 0.912415E-013
 0.910569E-013
 0.911221E-013
 0.911070E-013
 0.911138E-013
 0.911154E-013
 0.911181E-013
 0.911206E-013
 0.911231E-013
 0.911256E-013
 0.911281E-013
 0.911305E-013
 0.911330E-013
 0.911355E-013
 0.911379E-013
 0.911403E-013
 0.911427E-013
 0.911452E-013
 0.911475E-013
 0.911499E-013
 0.911523E-013
 0.911546E-013
 0.911569E-013
 0.911592E-013
 0.911615E-013
 0.911638E-013
 0.911660E-013
 0.911682E-013
 0.911704E-013
 0.911726E-013
 0.911747E-013
 0.911768E-013
 0.911788E-013
 0.911808E-013
 0.911828E-013
 0.911848E-013
 0.911866E-013
 0.911885E-013
 0.911903E-013
 0.911920E-013
 0.911937E-013
 0.911953E-013
 0.911969E-013
 0.911984E-013
 0.911999E-013
 0.912013E-013
 0.912026E-013
 0.912038E-013
 0.912050E-013
 0.912061E-013
 0.912071E-013
 0.912081E-013
 0.912089E-013
 0.912097E-013
 0.912104E-013
 0.912110E-013
 0.912115E-013
 0.912120E-013
 0.912123E-013
 0.912126E-013
 0.912128E-013
 0.912129E-013
 0.912129E-013
 0.912128E-013
 0.912126E-013
 0.912123E-013
 0.912120E-013
 0.912115E-013
 0.912110E-013
 0.912104E-013
 0.912097E-013
 0.912089E-013
 0.912081E-013
 0.912071E-013
 0.912061E-013
 0.912050E-013
 0.912038E-013
 0.912026E-013
 0.912013E-013
 0.911999E-013
 0.911984E-013
 0.911969E-013
 0.911953E-013
 0.911937E-013
 0.911920E-013
 0.911903E-013
 0.911885E-013
 0.911866E-013
 0.911847E-013
 0.911828E-013
 0.911808E-013
 0.911788E-013
 0.911768E-013
 0.911747E-013
 0.911726E-013
 0.911704E-013
 0.911682E-013
 0.911660E-013
 0.911638E-013
 0.911615E-013
 0.911592E-013
 0.911569E-013
 0.911546E-013
 0.911523E-013
 0.911499E-013
 0.911475E-013
 0.911451E-013
 0.911427E-013
 0.911403E-013
 0.911379E-013
 0.911355E-013
 0.911330E-013
 0.911305E-013
 0.911281E-013
 0.911256E-013
 0.911231E-013
 0.911206E-013
 0.911181E-013
 0.911154E-013
 0.911138E-013
 0.911070E-013
 0.911221E-013
 0.910569E-013
 0.912415E-013
 0.907812E-013
 0.916679E-013
 0.917505E-013
 0.907205E-013
 0.912539E-013
 0.910339E-013
 0.911070E-013
 0.910855E-013
 0.910899E-013
 0.910882E-013
 0.910878E-013
 0.910871E-013
 0.910865E-013
 0.910859E-013
 0.910852E-013
 0.910846E-013
 0.910840E-013
 0.910834E-013
 0.910828E-013
 0.910822E-013
 0.910815E-013
 0.910809E-013
 0.910803E-013
 0.910797E-013
 0.910791E-013
 0.910786E-013
 0.910780E-013
 0.910774E-013
 0.910768E-013
 0.910762E-013
 0.910757E-013
 0.910751E-013
 0.910746E-013
 0.910740E-013
 0.910735E-013
 0.910730E-013
 0.910725E-013
 0.910720E-013
 0.910715E-013
 0.910710E-013
 0.910705E-013
 0.910701E-013
 0.910696E-013
 0.910692E-013
 0.910688E-013
 0.910683E-013
 0.910680E-013
 0.910676E-013
 0.910672E-013
 0.910669E-013
 0.910665E-013
 0.910662E-013
 0.910659E-013
 0.910657E-013
 0.910654E-013
 0.910652E-013
 0.910650E-013
 0.910648E-013
 0.910646E-013
 0.910644E-013
 0.910643E-013
 0.910642E-013
 0.910641E-013
 0.910641E-013
 0.910640E-013
 0.910640E-013
 0.910640E-013
 0.910640E-013
 0.910641E-013
 0.910641E-013
 0.910642E-013
 0.910643E-013
 0.910645E-013
 0.910646E-013
 0.910648E-013
 0.910650E-013
 0.910652E-013
 0.910654E-013
 0.910657E-013
 0.910659E-013
 0.910662E-013
 0.910665E-013
 0.910669E-013
 0.910672E-013
 0.910676E-013
 0.910680E-013
 0.910683E-013
 0.910688E-013
 0.910692E-013
 0.910696E-013
 0.910701E-013
 0.910705E-013
 0.910710E-013
 0.910715E-013
 0.910720E-013
 0.910725E-013
 0.910730E-013
 0.910735E-013
 0.910740E-013
 0.910746E-013
 0.910751E-013
 0.910757E-013
 0.910763E-013
 0.910768E-013
 0.910774E-013
 0.910780E-013
 0.910786E-013
 0.910791E-013
 0.910797E-013
 0.910803E-013
 0.910809E-013
 0.910815E-013
 0.910822E-013
 0.910828E-013
 0.910834E-013
 0.910840E-013
 0.910846E-013
 0.910852E-013
 0.910859E-013
 0.910865E-013
 0.910871E-013
 0.910878E-013
 0.910882E-013
 0.910899E-013
 0.910855E-013
 0.911070E-013
 0.910339E-013
 0.912539E-013
 0.907205E-013
 0.917505E-013
 0.918398E-013
 0.906699E-013
 0.912804E-013
 0.910289E-013
 0.911138E-013
 0.910899E-013
 0.910959E-013
 0.910948E-013
 0.910952E-013
 0.910953E-013
 0.910954E-013
 0.910956E-013
 0.910957E-013
 0.910958E-013
 0.910960E-013
 0.910961E-013
 0.910963E-013
 0.910964E-013
 0.910965E-013
 0.910967E-013
 0.910968E-013
 0.910969E-013
 0.910971E-013
 0.910972E-013
 0.910973E-013
 0.910974E-013
 0.910976E-013
 0.910977E-013
 0.910978E-013
 0.910979E-013
 0.910981E-013
 0.910982E-013
 0.910983E-013
 0.910984E-013
 0.910985E-013
 0.910987E-013
 0.910988E-013
 0.910989E-013
 0.910990E-013
 0.910991E-013
 0.910992E-013
 0.910993E-013
 0.910994E-013
 0.910995E-013
 0.910996E-013
 0.910997E-013
 0.910997E-013
 0.910998E-013
 0.910999E-013
 0.911000E-013
 0.911000E-013
 0.911001E-013
 0.911002E-013
 0.911002E-013
 0.911003E-013
 0.911003E-013
 0.911004E-013
 0.911004E-013
 0.911004E-013
 0.911005E-013
 0.911005E-013
 0.911005E-013
 0.911005E-013
 0.911005E-013
 0.911005E-013
 0.911005E-013
 0.911005E-013
 0.911005E-013
 0.911005E-013
 0.911004E-013
 0.911004E-013
 0.911004E-013
 0.911003E-013
 0.911003E-013
 0.911002E-013
 0.911002E-013
 0.911001E-013
 0.911000E-013
 0.911000E-013
 0.910999E-013
 0.910998E-013
 0.910997E-013
 0.910997E-013
 0.910996E-013
 0.910995E-013
 0.910994E-013
 0.910993E-013
 0.910992E-013
 0.910991E-013
 0.910990E-013
 0.910989E-013
 0.910988E-013
 0.910987E-013
 0.910985E-013
 0.910984E-013
 0.910983E-013
 0.910982E-013
 0.910981E-013
 0.910979E-013
 0.910978E-013
 0.910977E-013
 0.910976E-013
 0.910974E-013
 0.910973E-013
 0.910972E-013
 0.910971E-013
 0.910969E-013
 0.910968E-013
 0.910967E-013
 0.910965E-013
 0.910964E-013
 0.910963E-013
 0.910961E-013
 0.910960E-013
 0.910958E-013
 0.910957E-013
 0.910956E-013
 0.910954E-013
 0.910953E-013
 0.910952E-013
 0.910948E-013
 0.910959E-013
 0.910899E-013
 0.911138E-013
 0.910289E-013
 0.912804E-013
 0.906699E-013
 0.918398E-013
 0.919272E-013
 0.906170E-013
 0.913035E-013
 0.910196E-013
 0.911154E-013
 0.910882E-013
 0.910948E-013
 0.910934E-013
 0.910936E-013
 0.910935E-013
 0.910935E-013
 0.910935E-013
 0.910935E-013
 0.910934E-013
 0.910934E-013
 0.910934E-013
 0.910934E-013
 0.910933E-013
 0.910933E-013
 0.910933E-013
 0.910933E-013
 0.910932E-013
 0.910932E-013
 0.910932E-013
 0.910932E-013
 0.910932E-013
 0.910931E-013
 0.910931E-013
 0.910931E-013
 0.910931E-013
 0.910930E-013
 0.910930E-013
 0.910930E-013
 0.910930E-013
 0.910930E-013
 0.910930E-013
 0.910929E-013
 0.910929E-013
 0.910929E-013
 0.910929E-013
 0.910929E-013
 0.910929E-013
 0.910928E-013
 0.910928E-013
 0.910928E-013
 0.910928E-013
 0.910928E-013
 0.910928E-013
 0.910928E-013
 0.910928E-013
 0.910928E-013
 0.910928E-013
 0.910928E-013
 0.910928E-013
 0.910927E-013
 0.910927E-013
 0.910927E-013
 0.910927E-013
 0.910927E-013
 0.910927E-013
 0.910927E-013
 0.910927E-013
 0.910927E-013
 0.910927E-013
 0.910927E-013
 0.910927E-013
 0.910927E-013
 0.910927E-013
 0.910927E-013
 0.910927E-013
 0.910927E-013
 0.910927E-013
 0.910927E-013
 0.910927E-013
 0.910928E-013
 0.910928E-013
 0.910928E-013
 0.910928E-013
 0.910928E-013
 0.910928E-013
 0.910928E-013
 0.910928E-013
 0.910928E-013
 0.910928E-013
 0.910928E-013
 0.910928E-013
 0.910929E-013
 0.910929E-013
 0.910929E-013
 0.910929E-013
 0.910929E-013
 0.910929E-013
 0.910930E-013
 0.910930E-013
 0.910930E-013
 0.910930E-013
 0.910930E-013
 0.910930E-013
 0.910931E-013
 0.910931E-013
 0.910931E-013
 0.910931E-013
 0.910932E-013
 0.910932E-013
 0.910932E-013
 0.910932E-013
 0.910932E-013
 0.910933E-013
 0.910933E-013
 0.910933E-013
 0.910933E-013
 0.910934E-013
 0.910934E-013
 0.910934E-013
 0.910934E-013
 0.910935E-013
 0.910935E-013
 0.910935E-013
 0.910935E-013
 0.910936E-013
 0.910934E-013
 0.910948E-013
 0.910882E-013
 0.911154E-013
 0.910196E-013
 0.913035E-013
 0.906171E-013
 0.919272E-013
 0.920148E-013
 0.905648E-013
 0.913272E-013
 0.910113E-013
 0.911181E-013
 0.910878E-013
 0.910952E-013
 0.910936E-013
 0.910939E-013
 0.910939E-013
 0.910939E-013
 0.910939E-013
 0.910939E-013
 0.910939E-013
 0.910939E-013
 0.910939E-013
 0.910939E-013
 0.910939E-013
 0.910939E-013
 0.910939E-013
 0.910939E-013
 0.910939E-013
 0.910940E-013
 0.910940E-013
 0.910940E-013
 0.910940E-013
 0.910940E-013
 0.910940E-013
 0.910940E-013
 0.910940E-013
 0.910940E-013
 0.910940E-013
 0.910940E-013
 0.910940E-013
 0.910940E-013
 0.910940E-013
 0.910941E-013
 0.910941E-013
 0.910941E-013
 0.910941E-013
 0.910941E-013
 0.910941E-013
 0.910941E-013
 0.910941E-013
 0.910941E-013
 0.910941E-013
 0.910941E-013
 0.910942E-013
 0.910942E-013
 0.910942E-013
 0.910942E-013
 0.910942E-013
 0.910942E-013
 0.910942E-013
 0.910942E-013
 0.910942E-013
 0.910942E-013
 0.910942E-013
 0.910942E-013
 0.910942E-013
 0.910942E-013
 0.910942E-013
 0.910942E-013
 0.910942E-013
 0.910942E-013
 0.910942E-013
 0.910942E-013
 0.910942E-013
 0.910942E-013
 0.910942E-013
 0.910942E-013
 0.910942E-013
 0.910942E-013
 0.910942E-013
 0.910942E-013
 0.910942E-013
 0.910942E-013
 0.910942E-013
 0.910942E-013
 0.910942E-013
 0.910942E-013
 0.910941E-013
 0.910941E-013
 0.910941E-013
 0.910941E-013
 0.910941E-013
 0.910941E-013
 0.910941E-013
 0.910941E-013
 0.910941E-013
 0.910941E-013
 0.910941E-013
 0.910940E-013
 0.910940E-013
 0.910940E-013
 0.910940E-013
 0.910940E-013
 0.910940E-013
 0.910940E-013
 0.910940E-013
 0.910940E-013
 0.910940E-013
 0.910940E-013
 0.910940E-013
 0.910940E-013
 0.910940E-013
 0.910939E-013
 0.910939E-013
 0.910939E-013
 0.910939E-013
 0.910939E-013
 0.910939E-013
 0.910939E-013
 0.910939E-013
 0.910939E-013
 0.910939E-013
 0.910939E-013
 0.910939E-013
 0.910939E-013
 0.910939E-013
 0.910936E-013
 0.910952E-013
 0.910878E-013
 0.911181E-013
 0.910113E-013
 0.913272E-013
 0.905649E-013
 0.920148E-013
 0.921020E-013
 0.905127E-013
 0.913507E-013
 0.910028E-013
 0.911206E-013
 0.910871E-013
 0.910953E-013
 0.910935E-013
 0.910939E-013
 0.910938E-013
 0.910938E-013
 0.910938E-013
 0.910938E-013
 0.910938E-013
 0.910938E-013
 0.910938E-013
 0.910938E-013
 0.910938E-013
 0.910938E-013
 0.910938E-013
 0.910938E-013
 0.910938E-013
 0.910938E-013
 0.910938E-013
 0.910938E-013
 0.910938E-013
 0.910938E-013
 0.910938E-013
 0.910938E-013
 0.910938E-013
 0.910938E-013
 0.910939E-013
 0.910939E-013
 0.910939E-013
 0.910939E-013
 0.910939E-013
 0.910939E-013
 0.910939E-013
 0.910939E-013
 0.910939E-013
 0.910939E-013
 0.910939E-013
 0.910939E-013
 0.910939E-013
 0.910939E-013
 0.910939E-013
 0.910939E-013
 0.910939E-013
 0.910940E-013
 0.910940E-013
 0.910940E-013
 0.910940E-013
 0.910940E-013
 0.910940E-013
 0.910940E-013
 0.910940E-013
 0.910940E-013
 0.910940E-013
 0.910940E-013
 0.910940E-013
 0.910940E-013
 0.910940E-013
 0.910940E-013
 0.910940E-013
 0.910940E-013
 0.910940E-013
 0.910940E-013
 0.910940E-013
 0.910940E-013
 0.910940E-013
 0.910940E-013
 0.910940E-013
 0.910940E-013
 0.910940E-013
 0.910940E-013
 0.910940E-013
 0.910940E-013
 0.910940E-013
 0.910940E-013
 0.910940E-013
 0.910939E-013
 0.910939E-013
 0.910939E-013
 0.910939E-013
 0.910939E-013
 0.910939E-013
 0.910939E-013
 0.910939E-013
 0.910939E-013
 0.910939E-013
 0.910939E-013
 0.910939E-013
 0.910939E-013
 0.910939E-013
 0.910939E-013
 0.910939E-013
 0.910939E-013
 0.910938E-013
 0.910938E-013
 0.910938E-013
 0.910938E-013
 0.910938E-013
 0.910938E-013
 0.910938E-013
 0.910938E-013
 0.910938E-013
 0.910938E-013
 0.910938E-013
 0.910938E-013
 0.910938E-013
 0.910938E-013
 0.910938E-013
 0.910938E-013
 0.910938E-013
 0.910938E-013
 0.910938E-013
 0.910938E-013
 0.910938E-013
 0.910938E-013
 0.910939E-013
 0.910935E-013
 0.910953E-013
 0.910871E-013
 0.911206E-013
 0.910028E-013
 0.913507E-013
 0.905127E-013
 0.921020E-013
 0.921889E-013
 0.904608E-013
 0.913742E-013
 0.909944E-013
 0.911231E-013
 0.910865E-013
 0.910954E-013
 0.910935E-013
 0.910939E-013
 0.910938E-013
 0.910938E-013
 0.910938E-013
 0.910938E-013
 0.910938E-013
 0.910938E-013
 0.910938E-013
 0.910938E-013
 0.910938E-013
 0.910938E-013
 0.910938E-013
 0.910938E-013
 0.910938E-013
 0.910939E-013
 0.910939E-013
 0.910939E-013
 0.910939E-013
 0.910939E-013
 0.910939E-013
 0.910939E-013
 0.910939E-013
 0.910939E-013
 0.910939E-013
 0.910939E-013
 0.910939E-013
 0.910939E-013
 0.910939E-013
 0.910939E-013
 0.910939E-013
 0.910939E-013
 0.910939E-013
 0.910939E-013
 0.910940E-013
 0.910940E-013
 0.910940E-013
 0.910940E-013
 0.910940E-013
 0.910940E-013
 0.910940E-013
 0.910940E-013