# vtk DataFile Version 3.0
Solution data
ASCII
DATASET STRUCTURED_GRID
DIMENSIONS 128 128 1
POINTS 16384  double
      0.000004      0.000004      0.000000
      0.000012      0.000004      0.000000
      0.000020      0.000004      0.000000
      0.000027      0.000004      0.000000
      0.000035      0.000004      0.000000
      0.000043      0.000004      0.000000
      0.000051      0.000004      0.000000
      0.000059      0.000004      0.000000
      0.000066      0.000004      0.000000
      0.000074      0.000004      0.000000
      0.000082      0.000004      0.000000
      0.000090      0.000004      0.000000
      0.000098      0.000004      0.000000
      0.000105      0.000004      0.000000
      0.000113      0.000004      0.000000
      0.000121      0.000004      0.000000
      0.000129      0.000004      0.000000
      0.000137      0.000004      0.000000
      0.000145      0.000004      0.000000
      0.000152      0.000004      0.000000
      0.000160      0.000004      0.000000
      0.000168      0.000004      0.000000
      0.000176      0.000004      0.000000
      0.000184      0.000004      0.000000
      0.000191      0.000004      0.000000
      0.000199      0.000004      0.000000
      0.000207      0.000004      0.000000
      0.000215      0.000004      0.000000
      0.000223      0.000004      0.000000
      0.000230      0.000004      0.000000
      0.000238      0.000004      0.000000
      0.000246      0.000004      0.000000
      0.000254      0.000004      0.000000
      0.000262      0.000004      0.000000
      0.000270      0.000004      0.000000
      0.000277      0.000004      0.000000
      0.000285      0.000004      0.000000
      0.000293      0.000004      0.000000
      0.000301      0.000004      0.000000
      0.000309      0.000004      0.000000
      0.000316      0.000004      0.000000
      0.000324      0.000004      0.000000
      0.000332      0.000004      0.000000
      0.000340      0.000004      0.000000
      0.000348      0.000004      0.000000
      0.000355      0.000004      0.000000
      0.000363      0.000004      0.000000
      0.000371      0.000004      0.000000
      0.000379      0.000004      0.000000
      0.000387      0.000004      0.000000
      0.000395      0.000004      0.000000
      0.000402      0.000004      0.000000
      0.000410      0.000004      0.000000
      0.000418      0.000004      0.000000
      0.000426      0.000004      0.000000
      0.000434      0.000004      0.000000
      0.000441      0.000004      0.000000
      0.000449      0.000004      0.000000
      0.000457      0.000004      0.000000
      0.000465      0.000004      0.000000
      0.000473      0.000004      0.000000
      0.000480      0.000004      0.000000
      0.000488      0.000004      0.000000
      0.000496      0.000004      0.000000
      0.000504      0.000004      0.000000
      0.000512      0.000004      0.000000
      0.000520      0.000004      0.000000
      0.000527      0.000004      0.000000
      0.000535      0.000004      0.000000
      0.000543      0.000004      0.000000
      0.000551      0.000004      0.000000
      0.000559      0.000004      0.000000
      0.000566      0.000004      0.000000
      0.000574      0.000004      0.000000
      0.000582      0.000004      0.000000
      0.000590      0.000004      0.000000
      0.000598      0.000004      0.000000
      0.000605      0.000004      0.000000
      0.000613      0.000004      0.000000
      0.000621      0.000004      0.000000
      0.000629      0.000004      0.000000
      0.000637      0.000004      0.000000
      0.000645      0.000004      0.000000
      0.000652      0.000004      0.000000
      0.000660      0.000004      0.000000
      0.000668      0.000004      0.000000
      0.000676      0.000004      0.000000
      0.000684      0.000004      0.000000
      0.000691      0.000004      0.000000
      0.000699      0.000004      0.000000
      0.000707      0.000004      0.000000
      0.000715      0.000004      0.000000
      0.000723      0.000004      0.000000
      0.000730      0.000004      0.000000
      0.000738      0.000004      0.000000
      0.000746      0.000004      0.000000
      0.000754      0.000004      0.000000
      0.000762      0.000004      0.000000
      0.000770      0.000004      0.000000
      0.000777      0.000004      0.000000
      0.000785      0.000004      0.000000
      0.000793      0.000004      0.000000
      0.000801      0.000004      0.000000
      0.000809      0.000004      0.000000
      0.000816      0.000004      0.000000
      0.000824      0.000004      0.000000
      0.000832      0.000004      0.000000
      0.000840      0.000004      0.000000
      0.000848      0.000004      0.000000
      0.000855      0.000004      0.000000
      0.000863      0.000004      0.000000
      0.000871      0.000004      0.000000
      0.000879      0.000004      0.000000
      0.000887      0.000004      0.000000
      0.000895      0.000004      0.000000
      0.000902      0.000004      0.000000
      0.000910      0.000004      0.000000
      0.000918      0.000004      0.000000
      0.000926      0.000004      0.000000
      0.000934      0.000004      0.000000
      0.000941      0.000004      0.000000
      0.000949      0.000004      0.000000
      0.000957      0.000004      0.000000
      0.000965      0.000004      0.000000
      0.000973      0.000004      0.000000
      0.000980      0.000004      0.000000
      0.000988      0.000004      0.000000
      0.000996      0.000004      0.000000
      0.000004      0.000012      0.000000
      0.000012      0.000012      0.000000
      0.000020      0.000012      0.000000
      0.000027      0.000012      0.000000
      0.000035      0.000012      0.000000
      0.000043      0.000012      0.000000
      0.000051      0.000012      0.000000
      0.000059      0.000012      0.000000
      0.000066      0.000012      0.000000
      0.000074      0.000012      0.000000
      0.000082      0.000012      0.000000
      0.000090      0.000012      0.000000
      0.000098      0.000012      0.000000
      0.000105      0.000012      0.000000
      0.000113      0.000012      0.000000
      0.000121      0.000012      0.000000
      0.000129      0.000012      0.000000
      0.000137      0.000012      0.000000
      0.000145      0.000012      0.000000
      0.000152      0.000012      0.000000
      0.000160      0.000012      0.000000
      0.000168      0.000012      0.000000
      0.000176      0.000012      0.000000
      0.000184      0.000012      0.000000
      0.000191      0.000012      0.000000
      0.000199      0.000012      0.000000
      0.000207      0.000012      0.000000
      0.000215      0.000012      0.000000
      0.000223      0.000012      0.000000
      0.000230      0.000012      0.000000
      0.000238      0.000012      0.000000
      0.000246      0.000012      0.000000
      0.000254      0.000012      0.000000
      0.000262      0.000012      0.000000
      0.000270      0.000012      0.000000
      0.000277      0.000012      0.000000
      0.000285      0.000012      0.000000
      0.000293      0.000012      0.000000
      0.000301      0.000012      0.000000
      0.000309      0.000012      0.000000
      0.000316      0.000012      0.000000
      0.000324      0.000012      0.000000
      0.000332      0.000012      0.000000
      0.000340      0.000012      0.000000
      0.000348      0.000012      0.000000
      0.000355      0.000012      0.000000
      0.000363      0.000012      0.000000
      0.000371      0.000012      0.000000
      0.000379      0.000012      0.000000
      0.000387      0.000012      0.000000
      0.000395      0.000012      0.000000
      0.000402      0.000012      0.000000
      0.000410      0.000012      0.000000
      0.000418      0.000012      0.000000
      0.000426      0.000012      0.000000
      0.000434      0.000012      0.000000
      0.000441      0.000012      0.000000
      0.000449      0.000012      0.000000
      0.000457      0.000012      0.000000
      0.000465      0.000012      0.000000
      0.000473      0.000012      0.000000
      0.000480      0.000012      0.000000
      0.000488      0.000012      0.000000
      0.000496      0.000012      0.000000
      0.000504      0.000012      0.000000
      0.000512      0.000012      0.000000
      0.000520      0.000012      0.000000
      0.000527      0.000012      0.000000
      0.000535      0.000012      0.000000
      0.000543      0.000012      0.000000
      0.000551      0.000012      0.000000
      0.000559      0.000012      0.000000
      0.000566      0.000012      0.000000
      0.000574      0.000012      0.000000
      0.000582      0.000012      0.000000
      0.000590      0.000012      0.000000
      0.000598      0.000012      0.000000
      0.000605      0.000012      0.000000
      0.000613      0.000012      0.000000
      0.000621      0.000012      0.000000
      0.000629      0.000012      0.000000
      0.000637      0.000012      0.000000
      0.000645      0.000012      0.000000
      0.000652      0.000012      0.000000
      0.000660      0.000012      0.000000
      0.000668      0.000012      0.000000
      0.000676      0.000012      0.000000
      0.000684      0.000012      0.000000
      0.000691      0.000012      0.000000
      0.000699      0.000012      0.000000
      0.000707      0.000012      0.000000
      0.000715      0.000012      0.000000
      0.000723      0.000012      0.000000
      0.000730      0.000012      0.000000
      0.000738      0.000012      0.000000
      0.000746      0.000012      0.000000
      0.000754      0.000012      0.000000
      0.000762      0.000012      0.000000
      0.000770      0.000012      0.000000
      0.000777      0.000012      0.000000
      0.000785      0.000012      0.000000
[...]
POINT_DATA 16384
SCALARS rhoe double
LOOKUP_TABLE default
 0.914502E-013
 0.913161E-013
 0.914739E-013
 0.915669E-013
 0.916707E-013
 0.917729E-013
 0.918749E-013
 0.919768E-013
 0.920784E-013
 0.921798E-013
 0.922810E-013
 0.923818E-013
 0.924825E-013
 0.925828E-013
 0.926828E-013
 0.927826E-013
 0.928819E-013
 0.929809E-013
 0.930795E-013
 0.931776E-013
 0.932752E-013
 0.933723E-013
 0.934689E-013
 0.935648E-013
 0.936601E-013
 0.937546E-013
 0.938484E-013
 0.939413E-013
 0.940333E-013
 0.941243E-013
 0.942142E-013
 0.943031E-013
 0.943907E-013
 0.944769E-013
 0.945618E-013
 0.946453E-013
 0.947271E-013
 0.948072E-013
 0.948856E-013
 0.949621E-013
 0.950367E-013
 0.951091E-013
 0.951794E-013
 0.952473E-013
 0.953129E-013
 0.953760E-013
 0.954364E-013
 0.954942E-013
 0.955491E-013
 0.956012E-013
 0.956502E-013
 0.956962E-013
 0.957390E-013
 0.957785E-013
 0.958147E-013
 0.958475E-013
 0.958768E-013
 0.959026E-013
 0.959248E-013
 0.959434E-013
 0.959583E-013
 0.959695E-013
 0.959770E-013
 0.959807E-013
 0.959807E-013
 0.959770E-013
 0.959695E-013
 0.959583E-013
 0.959433E-013
 0.959248E-013
 0.959025E-013
 0.958767E-013
 0.958474E-013
 0.958146E-013
 0.957784E-013
 0.957388E-013
 0.956961E-013
 0.956501E-013
 0.956010E-013
 0.955490E-013
 0.954940E-013
 0.954362E-013
 0.953758E-013
 0.953127E-013
 0.952471E-013
 0.951791E-013
 0.951089E-013
 0.950364E-013
 0.949619E-013
 0.948854E-013
 0.948070E-013
 0.947268E-013
 0.946450E-013
 0.945616E-013
 0.944767E-013
 0.943904E-013
 0.943028E-013
 0.942140E-013
 0.941240E-013
 0.940330E-013
 0.939410E-013
 0.938481E-013
 0.937543E-013
 0.936598E-013
 0.935645E-013
 0.934686E-013
 0.933721E-013
 0.932749E-013
 0.931773E-013
 0.930792E-013
 0.929806E-013
 0.928817E-013
 0.927823E-013
 0.926826E-013
 0.925826E-013
 0.924823E-013
 0.923817E-013
 0.922808E-013
 0.921796E-013
 0.920783E-013
 0.919766E-013
 0.918748E-013
 0.917727E-013
 0.916706E-013
 0.915668E-013
 0.914738E-013
 0.913160E-013
 0.914502E-013
 0.913161E-013
 0.909489E-013
 0.910050E-013
 0.909590E-013
 0.909314E-013
 0.909013E-013
 0.908716E-013
 0.908419E-013
 0.908123E-013
 0.907828E-013
 0.907534E-013
 0.907240E-013
 0.906948E-013
 0.906657E-013
 0.906366E-013
 0.906077E-013
 0.905789E-013
 0.905502E-013
 0.905216E-013
 0.904932E-013
 0.904650E-013
 0.904369E-013
 0.904090E-013
 0.903813E-013
 0.903537E-013
 0.903265E-013
 0.902994E-013
 0.902726E-013
 0.902461E-013
 0.902199E-013
 0.901940E-013
 0.901684E-013
 0.901432E-013
 0.901184E-013
 0.900940E-013
 0.900700E-013
 0.900465E-013
 0.900235E-013
 0.900010E-013
 0.899791E-013
 0.899577E-013
 0.899370E-013
 0.899168E-013
 0.898974E-013
 0.898786E-013
 0.898606E-013
 0.898433E-013
 0.898267E-013
 0.898110E-013
 0.897962E-013
 0.897822E-013
 0.897690E-013
 0.897568E-013
 0.897455E-013
 0.897352E-013
 0.897259E-013
 0.897175E-013
 0.897101E-013
 0.897038E-013
 0.896985E-013
 0.896943E-013
 0.896911E-013
 0.896889E-013
 0.896879E-013
 0.896879E-013
 0.896889E-013
 0.896911E-013
 0.896943E-013
 0.896985E-013
 0.897038E-013
 0.897102E-013
 0.897175E-013
 0.897259E-013
 0.897353E-013
 0.897456E-013
 0.897569E-013
 0.897691E-013
 0.897822E-013
 0.897962E-013
 0.898111E-013
 0.898268E-013
 0.898433E-013
 0.898606E-013
 0.898787E-013
 0.898975E-013
 0.899169E-013
 0.899370E-013
 0.899578E-013
 0.899792E-013
 0.900011E-013
 0.900236E-013
 0.900466E-013
 0.900701E-013
 0.900941E-013
 0.901185E-013
 0.901433E-013
 0.901685E-013
 0.901941E-013
 0.902200E-013
 0.902462E-013
 0.902727E-013
 0.902995E-013
 0.903266E-013
 0.903538E-013
 0.903814E-013
 0.904091E-013
 0.904370E-013
 0.904651E-013
 0.904933E-013
 0.905217E-013
 0.905503E-013
 0.905790E-013
 0.906078E-013
 0.906367E-013
 0.906657E-013
 0.906949E-013
 0.907241E-013
 0.907534E-013
 0.907829E-013
 0.908124E-013
 0.908420E-013
 0.908716E-013
 0.909014E-013
 0.909315E-013
 0.909591E-013
 0.910050E-013
 0.909490E-013
 0.913160E-013
 0.914739E-013
 0.910050E-013
 0.911337E-013
 0.911168E-013
 0.911261E-013
 0.911317E-013
 0.911377E-013
 0.911436E-013
 0.911495E-013
 0.911554E-013
 0.911613E-013
 0.911671E-013
 0.911729E-013
 0.911788E-013
 0.911845E-013
 0.911903E-013
 0.911961E-013
 0.912018E-013
 0.912075E-013
 0.912131E-013
 0.912188E-013
 0.912244E-013
 0.912299E-013
 0.912354E-013
 0.912409E-013
 0.912464E-013
 0.912517E-013
 0.912571E-013
 0.912624E-013
 0.912676E-013
 0.912727E-013
 0.912778E-013
 0.912829E-013
 0.912878E-013
 0.912927E-013
 0.912974E-013
 0.913021E-013
 0.913067E-013
 0.913112E-013
 0.913156E-013
 0.913198E-013
 0.913240E-013
 0.913280E-013
 0.913318E-013
 0.913356E-013
 0.913392E-013
 0.913426E-013
 0.913459E-013
 0.913491E-013
 0.913520E-013
 0.913548E-013
 0.913574E-013
 0.913599E-013
 0.913621E-013
 0.913642E-013
 0.913661E-013
 0.913677E-013
 0.913692E-013
 0.913705E-013
 0.913715E-013
 0.913724E-013
 0.913730E-013
 0.913734E-013
 0.913737E-013
 0.913737E-013
 0.913734E-013
 0.913730E-013
 0.913724E-013
 0.913715E-013
 0.913705E-013
 0.913692E-013
 0.913677E-013
 0.913661E-013
 0.913642E-013
 0.913621E-013
 0.913599E-013
 0.913574E-013
 0.913548E-013
 0.913520E-013
 0.913491E-013
 0.913459E-013
 0.913426E-013
 0.913392E-013
 0.913356E-013
 0.913318E-013
 0.913280E-013
 0.913239E-013
 0.913198E-013
 0.913155E-013
 0.913112E-013
 0.913067E-013
 0.913021E-013
 0.912974E-013
 0.912927E-013
 0.912878E-013
 0.912828E-013
 0.912778E-013
 0.912727E-013
 0.912676E-013
 0.912624E-013
 0.912571E-013
 0.912517E-013
 0.912463E-013
 0.912409E-013
 0.912354E-013
 0.912299E-013
 0.912244E-013
 0.912188E-013
 0.912131E-013
 0.912075E-013
 0.912018E-013
 0.911961E-013
 0.911903E-013
 0.911845E-013
 0.911787E-013
 0.911729E-013
 0.911671E-013
 0.911612E-013
 0.911554E-013
 0.911495E-013
 0.911436E-013
 0.911377E-013
 0.911317E-013
 0.911261E-013
 0.911168E-013
 0.911337E-013
 0.910050E-013
 0.914738E-013
 0.915669E-013
 0.909590E-013
 0.911168E-013
 0.910861E-013
 0.910895E-013
 0.910881E-013
 0.910872E-013
 0.910863E-013
 0.910854E-013
 0.910846E-013
 0.910837E-013
 0.910828E-013
 0.910819E-013
 0.910810E-013
 0.910801E-013
 0.910793E-013
 0.910784E-013
 0.910775E-013
 0.910767E-013
 0.910758E-013
 0.910750E-013
 0.910741E-013
 0.910733E-013
 0.910725E-013
 0.910717E-013
 0.910709E-013
 0.910700E-013
 0.910693E-013
 0.910685E-013
 0.910677E-013
 0.910669E-013
 0.910662E-013
 0.910654E-013
 0.910647E-013
 0.910640E-013
 0.910633E-013
 0.910626E-013
 0.910619E-013
 0.910613E-013
 0.910606E-013
 0.910600E-013
 0.910594E-013
 0.910588E-013
 0.910583E-013
 0.910577E-013
 0.910572E-013
 0.910567E-013
 0.910562E-013
 0.910558E-013
 0.910554E-013
 0.910550E-013
 0.910546E-013
 0.910543E-013
 0.910539E-013
 0.910537E-013
 0.910534E-013
 0.910532E-013
 0.910530E-013
 0.910528E-013
 0.910526E-013
 0.910525E-013
 0.910524E-013
 0.910524E-013
 0.910523E-013
 0.910523E-013
 0.910524E-013
 0.910524E-013
 0.910525E-013
 0.910526E-013
 0.910528E-013
 0.910530E-013
 0.910532E-013
 0.910534E-013
 0.910537E-013
 0.910540E-013
 0.910543E-013
 0.910546E-013
 0.910550E-013
 0.910554E-013
 0.910558E-013
 0.910563E-013
 0.910567E-013
 0.910572E-013
 0.910577E-013
 0.910583E-013
 0.910588E-013
 0.910594E-013
 0.910600E-013
 0.910606E-013
 0.910613E-013
 0.910619E-013
 0.910626E-013
 0.910633E-013
 0.910640E-013
 0.910647E-013
 0.910654E-013
 0.910662E-013
 0.910669E-013
 0.910677E-013
 0.910685E-013
 0.910693E-013
 0.910701E-013
 0.910709E-013
 0.910717E-013
 0.910725E-013
 0.910733E-013
 0.910742E-013
 0.910750E-013
 0.910758E-013
 0.910767E-013
 0.910775E-013
 0.910784E-013
 0.910793E-013
 0.910801E-013
 0.910810E-013
 0.910819E-013
 0.910828E-013
 0.910837E-013
 0.910846E-013
 0.910855E-013
 0.910863E-013
 0.910872E-013
 0.910881E-013
 0.910895E-013
 0.910861E-013
 0.911168E-013
 0.909591E-013
 0.915668E-013
 0.916707E-013
 0.909314E-013
 0.911261E-013
 0.910895E-013
 0.910950E-013
 0.910945E-013
 0.910946E-013
 0.910947E-013
 0.910948E-013
 0.910949E-013
 0.910951E-013
 0.910952E-013
 0.910953E-013
 0.910954E-013
 0.910955E-013
 0.910956E-013
 0.910957E-013
 0.910958E-013
 0.910959E-013
 0.910960E-013
 0.910961E-013
 0.910962E-013
 0.910963E-013
 0.910964E-013
 0.910966E-013
 0.910967E-013
 0.910968E-013
 0.910969E-013
 0.910970E-013
 0.910971E-013
 0.910972E-013
 0.910973E-013
 0.910974E-013
 0.910975E-013
 0.910976E-013
 0.910977E-013
 0.910978E-013
 0.910979E-013
 0.910980E-013
 0.910981E-013
 0.910982E-013
 0.910983E-013
 0.910984E-013
 0.910985E-013
 0.910986E-013
 0.910987E-013
 0.910988E-013
 0.910989E-013
 0.910990E-013
 0.910990E-013
 0.910991E-013
 0.910992E-013
 0.910993E-013
 0.910993E-013
 0.910994E-013
 0.910994E-013
 0.910995E-013
 0.910995E-013
 0.910996E-013
 0.910996E-013
 0.910996E-013
 0.910996E-013
 0.910996E-013
 0.910997E-013
 0.910997E-013
 0.910996E-013
 0.910996E-013
 0.910996E-013
 0.910996E-013
 0.910996E-013
 0.910995E-013
 0.910995E-013
 0.910994E-013
 0.910994E-013
 0.910993E-013
 0.910993E-013
 0.910992E-013
 0.910991E-013
 0.910990E-013
 0.910990E-013
 0.910989E-013
 0.910988E-013
 0.910987E-013
 0.910986E-013
 0.910985E-013
 0.910984E-013
 0.910983E-013
 0.910982E-013
 0.910981E-013
 0.910980E-013
 0.910979E-013
 0.910978E-013
 0.910977E-013
 0.910976E-013
 0.910975E-013
 0.910974E-013
 0.910973E-013
 0.910972E-013
 0.910971E-013
 0.910970E-013
 0.910969E-013
 0.910968E-013
 0.910967E-013
 0.910966E-013
 0.910965E-013
 0.910963E-013
 0.910962E-013
 0.910961E-013
 0.910960E-013
 0.910959E-013
 0.910958E-013
 0.910957E-013
 0.910956E-013
 0.910955E-013
 0.910954E-013
 0.910953E-013
 0.910952E-013
 0.910951E-013
 0.910950E-013
 0.910948E-013
 0.910947E-013
 0.910946E-013
 0.910945E-013
 0.910950E-013
 0.910895E-013
 0.911261E-013
 0.909315E-013
 0.916706E-013
 0.917729E-013
 0.909013E-013
 0.911317E-013
 0.910881E-013
 0.910945E-013
 0.910937E-013
 0.910937E-013
 0.910937E-013
 0.910937E-013
 0.910937E-013
 0.910937E-013
 0.910937E-013
 0.910937E-013
 0.910937E-013
 0.910937E-013
 0.910936E-013
 0.910936E-013
 0.910936E-013
 0.910936E-013
 0.910936E-013
 0.910936E-013
 0.910936E-013
 0.910936E-013
 0.910936E-013
 0.910936E-013
 0.910936E-013
 0.910936E-013
 0.910936E-013
 0.910936E-013
 0.910936E-013
 0.910936E-013
 0.910936E-013
 0.910936E-013
 0.910936E-013
 0.910936E-013
 0.910936E-013
 0.910937E-013
 0.910937E-013
 0.910937E-013
 0.910937E-013
 0.910937E-013
 0.910938E-013
 0.910938E-013
 0.910938E-013
 0.910938E-013
 0.910938E-013
 0.910939E-013
 0.910939E-013
 0.910939E-013
 0.910939E-013
 0.910940E-013
 0.910940E-013
 0.910940E-013
 0.910940E-013
 0.910941E-013
 0.910941E-013
 0.910941E-013
 0.910941E-013
 0.910941E-013
 0.910941E-013
 0.910941E-013
 0.910942E-013
 0.910942E-013
 0.910942E-013
 0.910942E-013
 0.910942E-013
 0.910942E-013
 0.910941E-013
 0.910941E-013
 0.910941E-013
 0.910941E-013
 0.910941E-013
 0.910941E-013
 0.910941E-013
 0.910940E-013
 0.910940E-013
 0.910940E-013
 0.910940E-013
 0.910939E-013
 0.910939E-013
 0.910939E-013
 0.910939E-013
 0.910939E-013
 0.910938E-013
 0.910938E-013
 0.910938E-013
 0.910938E-013
 0.910937E-013
 0.910937E-013
 0.910937E-013
 0.910937E-013
 0.910937E-013
 0.910937E-013
 0.910936E-013
 0.910936E-013
 0.910936E-013
 0.910936E-013
 0.910936E-013
 0.910936E-013
 0.910936E-013
 0.910936E-013
 0.910936E-013
 0.910936E-013
 0.910936E-013
 0.910936E-013
 0.910936E-013
 0.910936E-013
 0.910936E-013
 0.910936E-013
 0.910936E-013
 0.910936E-013
 0.910936E-013
 0.910936E-013
 0.910937E-013
 0.910937E-013
 0.910937E-013
 0.910937E-013
 0.910937E-013
 0.910937E-013
 0.910937E-013
 0.910937E-013
 0.910938E-013
 0.910937E-013
 0.910945E-013
 0.910881E-013
 0.911317E-013
 0.909014E-013
 0.917727E-013
 0.918749E-013
 0.908716E-013
 0.911377E-013
 0.910872E-013
 0.910946E-013
 0.910937E-013
 0.910938E-013
 0.910938E-013
 0.910938E-013
 0.910938E-013
 0.910938E-013
 0.910938E-013
 0.910938E-013
 0.910938E-013
 0.910938E-013
 0.910938E-013
 0.910938E-013
 0.910938E-013
 0.910939E-013
 0.910939E-013
 0.910939E-013
 0.910939E-013
 0.910939E-013
 0.910939E-013
 0.910939E-013
 0.910939E-013
 0.910939E-013
 0.910939E-013
 0.910940E-013
 0.910940E-013
 0.910940E-013
 0.910940E-013
 0.910940E-013
 0.910941E-013
 0.910941E-013
 0.910941E-013
 0.910941E-013
 0.910942E-013
 0.910942E-013
 0.910942E-013
 0.910943E-013
 0.910943E-013
 0.910943E-013
 0.910944E-013
 0.910944E-013
 0.910944E-013
 0.910945E-013
 0.910945E-013
 0.910946E-013
 0.910946E-013
 0.910946E-013
 0.910947E-013
 0.910947E-013
 0.910947E-013
 0.910948E-013
 0.910948E-013
 0.910948E-013
 0.910948E-013
 0.910949E-013
 0.910949E-013
 0.910949E-013
 0.910949E-013
 0.910949E-013
 0.910949E-013
 0.910949E-013
 0.910949E-013
 0.910949E-013
 0.910949E-013
 0.910949E-013
 0.910949E-013
 0.910948E-013
 0.910948E-013
 0.910948E-013
 0.910948E-013
 0.910947E-013
 0.910947E-013
 0.910947E-013
 0.910946E-013
 0.910946E-013
 0.910946E-013
 0.910945E-013
 0.910945E-013
 0.910944E-013
 0.910944E-013
 0.910944E-013
 0.910943E-013
 0.910943E-013
 0.910943E-013
 0.910942E-013
 0.910942E-013
 0.910942E-013
 0.910941E-013
 0.910941E-013
 0.910941E-013
 0.910941E-013
 0.910940E-013
 0.910940E-013
 0.910940E-013
 0.910940E-013
 0.910940E-013
 0.910939E-013
 0.910939E-013
 0.910939E-013
 0.910939E-013
 0.910939E-013
 0.910939E-013
 0.910939E-013
 0.910939E-013
 0.910939E-013
 0.910939E-013
 0.910939E-013
 0.910939E-013
 0.910938E-013
 0.910938E-013
 0.910938E-013
 0.910938E-013
 0.910938E-013
 0.910938E-013
 0.910938E-013
 0.910938E-013
 0.910938E-013
 0.910938E-013
 0.910938E-013
 0.910946E-013
 0.910873E-013
 0.911377E-013
 0.908716E-013
 0.918748E-013
 0.919768E-013
 0.908419E-013
 0.911436E-013
 0.910863E-013
 0.910947E-013
 0.910937E-013
 0.910938E-013
 0.910938E-013
 0.910938E-013
 0.910938E-013
 0.910938E-013
 0.910938E-013
 0.910938E-013
 0.910938E-013
 0.910938E-013
 0.910938E-013
 0.910938E-013
 0.910938E-013
 0.910938E-013
 0.910938E-013
 0.910938E-013
 0.910939E-013
 0.910939E-013
 0.910939E-013
 0.910939E-013
 0.910939E-013
 0.910939E-013
 0.910939E-013
 0.910939E-013
 0.910940E-013
 0.910940E-013
 0.910940E-013
 0.910940E-013
 0.910941E-013
 0.910941E-013
 0.910941E-013
 0.910942E-013
 0.910942E-013
 0.910942E-013
 0.910943E-013
 0.910943E-013
 0.910943E-013
 0.910944E-013
 0.910944E-013
 0.910945E-013
 0.910945E-013
 0.910946E-013
 0.910946E-013
 0.910946E-013
 0.910947E-013
 0.910947E-013
 0.910948E-013
 0.910948E-013
 0.910948E-013
 0.910949E-013
 0.910949E-013
 0.910949E-013
 0.910950E-013
 0.910950E-013
 0.910950E-013
 0.910950E-013
 0.910950E-013
 0.910951E-013
 0.910951E-013
 0.910951E-013
 0.910951E-013
 0.910950E-013
 0.910950E-013
 0.910950E-013
 0.910950E-013
 0.910950E-013
 0.910949E-013
 0.910949E-013
 0.910949E-013
 0.910949E-013
 0.910948E-013
 0.910948E-013
 0.910947E-013
 0.910947E-013
 0.910947E-013
 0.910946E-013
 0.910946E-013
 0.910945E-013
 0.910945E-013
 0.910944E-013
 0.910944E-013
 0.910944E-013
 0.910943E-013
 0.910943E-013
 0.910942E-013
 0.910942E-013
 0.910942E-013
 0.910941E-013
 0.910941E-013
 0.910941E-013
 0.910940E-013
 0.910940E-013
 0.910940E-013
 0.910940E-013
 0.910940E-013
 0.910939E-013
 0.910939E-013
 0.910939E-013
 0.910939E-013
 0.910939E-013
 0.910939E-013
 0.910939E-013
 0.910939E-013
 0.910939E-013
 0.910938E-013
 0.910938E-013
 0.910938E-013
 0.910938E-013
 0.910938E-013
 0.910938E-013
 0.910938E-013
 0.910938E-013
 0.910938E-013
 0.910938E-013
 0.910938E-013
 0.910938E-013
 0.910938E-013
 0.910937E-013
 0.910947E-013
 0.910864E-013
 0.911436E-013
 0.908420E-013
 0.919766E-013
 0.920784E-013
 0.908123E-013
 0.911495E-013
 0.910854E-013
 0.910948E-013
 0.910937E-013
 0.910938E-013
 0.910938E-013
 0.910938E-013
 0.910938E-013
 0.910938E-013
 0.910938E-013
 0.910938E-013
 0.910938E-013
 0.910938E-013
 0.910938E-013
 0.910938E-013
 0.910938E-013
 0.910938E-013
 0.910938E-013
 0.910939E-013
 0.910939E-013
 0.910939E-013
 0.910939E-013
 0.910939E-013
 0.910939E-013
 0.910939E-013
 0.910940E-013
 0.910940E-013
 0.910940E-013
 0.910940E-013
 0.910941E-013
 0.910941E-013
 0.910941E-013
 0.910942E-013
 0.910942E-013
 0.910942E-013
 0.910943E-013
 0.910943E-013
 0.910944E-013
 0.910944E-013
 0.910945E-013
 0.910945E-013
 0.910946E-013
 0.910946E-013
 0.910947E-013
 0.910947E-013
 0.910948E-013
 0.910948E-013
 0.910949E-013
 0.910949E-013
 0.910950E-013
 0.910950E-013
 0.910951E-013
 0.910951E-013
 0.910951E-013
 0.910952E-013
 0.910952E-013
 0.910952E-013
 0.910953E-013
 0.910953E-013
 0.910953E-013
 0.910953E-013
 0.910953E-013
 0.910953E-013
 0.910953E-013
 0.910953E-013
 0.910953E-013
 0.910953E-013
 0.910952E-013
 0.910952E-013
 0.910952E-013
 0.910951E-013
 0.910951E-013
 0.910951E-013
 0.910950E-013
 0.910950E-013
 0.910949E-013
 0.910949E-013
 0.910948E-013
 0.910948E-013
 0.910947E-013
 0.910947E-013
 0.910946E-013
 0.910946E-013
 0.910945E-013
 0.910945E-013
 0.910944E-013
 0.910944E-013
 0.910943E-013
 0.910943E-013
 0.910942E-013
 0.910942E-013
 0.910942E-013
 0.910941E-013
 0.910941E-013
 0.910941E-013
 0.910940E-013
 0.910940E-013
 0.910940E-013
 0.910940E-013
 0.910939E-013
 0.910939E-013
 0.910939E-013
 0.910939E-013
 0.910939E-013
 0.910939E-013
 0.910939E-013
 0.910939E-013
 0.910939E-013
 0.910938E-013
 0.910938E-013
 0.910938E-013
 0.910938E-013
 0.910938E-013
 0.910938E-013
 0.910938E-013
 0.910938E-013
 0.910938E-013
 0.910938E-013
 0.910938E-013
 0.910938E-013
 0.910937E-013
 0.910949E-013
 0.910855E-013
 0.911495E-013
 0.908124E-013
 0.920782E-013
 0.921798E-013
 0.907828E-013
 0.911554E-013
 0.910846E-013
 0.910949E-013
 0.910937E-013
 0.910938E-013
 0.910938E-013
 0.910938E-013
 0.910938E-013
 0.910938E-013
 0.910938E-013
 0.910938E-013
 0.910938E-013
 0.910938E-013
 0.910938E-013
 0.910938E-013
 0.910938E-013
 0.910938E-013
 0.910939E-013
 0.910939E-013
 0.910939E-013
 0.910939E-013
 0.910939E-013
 0.910939E-013
 0.910939E-013
 0.910940E-013
 0.910940E-013
 0.910940E-013
 0.910940E-013
 0.910941E-013
 0.910941E-013
 0.910941E-013
 0.910942E-013
 0.910942E-013
 0.910943E-013
 0.910943E-013
 0.910944E-013
 0.910944E-013
 0.910945E-013
 0.910945E-013
 0.910946E-013
 0.910946E-013
 0.910947E-013
 0.910948E-013
 0.910948E-013
 0.910949E-013
 0.910949E-013
 0.910950E-013
 0.910951E-013
 0.910951E-013
 0.910952E-013
 0.910952E-013
 0.910953E-013
 0.910953E-013
 0.910954E-013
 0.910954E-013
 0.910955E-013
 0.910955E-013
 0.910955E-013
 0.910955E-013
 0.910956E-013
 0.910956E-013
 0.910956E-013
 0.910956E-013
 0.910956E-013
 0.910956E-013
 0.910955E-013
 0.910955E-013
 0.910955E-013
 0.910955E-013
 0.910954E-013
 0.910954E-013
 0.910953E-013
 0.910953E-013
 0.910952E-013
 0.910952E-013
 0.910951E-013
 0.910951E-013
 0.910950E-013
 0.910950E-013
 0.910949E-013
 0.910948E-013
 0.910948E-013
 0.910947E-013
 0.910946E-013
 0.910946E-013
 0.910945E-013
 0.910945E-013
 0.910944E-013
 0.910944E-013
 0.910943E-013
 0.910943E-013
 0.910942E-013
 0.910942E-013
 0.910942E-013
 0.910941E-013
 0.910941E-013
 0.910941E-013
 0.910940E-013
 0.910940E-013
 0.910940E-013
 0.910940E-013
 0.910939E-013
 0.910939E-013
 0.910939E-013
 0.910939E-013
 0.910939E-013
 0.910939E-013
 0.910939E-013
 0.910939E-013
 0.910938E-013
 0.910938E-013
 0.910938E-013
 0.910938E-013
 0.910938E-013
 0.910938E-013
 0.910938E-013
 0.910938E-013
 0.910938E-013
 0.910938E-013
 0.910938E-013
 0.910937E-013
 0.910950E-013
 0.910846E-013
 0.911554E-013
 0.907829E-013
 0.921796E-013
 0.922810E-013
 0.907534E-013
 0.911613E-013
 0.910837E-013
 0.910951E-013
 0.910937E-013
 0.910938E-013
 0.910938E-013
 0.910938E-013
 0.910938E-013
 0.910938E-013
 0.910938E-013
 0.910938E-013
 0.910938E-013
 0.910938E-013
 0.910938E-013
 0.910938E-013
 0.910938E-013
 0.910939E-013
 0.910939E-013
 0.910939E-013
 0.910939E-013
 0.910939E-013
 0.910939E-013
 0.910939E-013
 0.910940E-013
 0.910940E-013
 0.910940E-013
 0.910941E-013
 0.910941E-013
 0.910941E-013
 0.910942E-013
 0.910942E-013
 0.910943E-013
 0.910943E-013
 0.910944E-013
 0.910944E-013
 0.910945E-013
 0.910945E-013
 0.910946E-013
 0.910947E-013
 0.910947E-013
 0.910948E-013
 0.910949E-013
 0.910949E-013
 0.910950E-013
 0.910951E-013
 0.910952E-013
 0.910952E-013