# vtk DataFile Version 3.0
Solution data
ASCII
DATASET STRUCTURED_GRID
DIMENSIONS 128 128 1
POINTS 16384  double
      0.000004      0.000004      0.000000
      0.000012      0.000004      0.000000
      0.000020      0.000004      0.000000
      0.000027      0.000004      0.000000
      0.000035      0.000004      0.000000
      0.000043      0.000004      0.000000
      0.000051      0.000004      0.000000
      0.000059      0.000004      0.000000
      0.000066      0.000004      0.000000
      0.000074      0.000004      0.000000
      0.000082      0.000004      0.000000
      0.000090      0.000004      0.000000
      0.000098      0.000004      0.000000
      0.000105      0.000004      0.000000
      0.000113      0.000004      0.000000
      0.000121      0.000004      0.000000
      0.000129      0.000004      0.000000
      0.000137      0.000004      0.000000
      0.000145      0.000004      0.000000
      0.000152      0.000004      0.000000
      0.000160      0.000004      0.000000
      0.000168      0.000004      0.000000
      0.000176      0.000004      0.000000
      0.000184      0.000004      0.000000
      0.000191      0.000004      0.000000
      0.000199      0.000004      0.000000
      0.000207      0.000004      0.000000
      0.000215      0.000004      0.000000
      0.000223      0.000004      0.000000
      0.000230      0.000004      0.000000
      0.000238      0.000004      0.000000
      0.000246      0.000004      0.000000
      0.000254      0.000004      0.000000
      0.000262      0.000004      0.000000
      0.000270      0.000004      0.000000
      0.000277      0.000004      0.000000
      0.000285      0.000004      0.000000
      0.000293      0.000004      0.000000
      0.000301      0.000004      0.000000
      0.000309      0.000004      0.000000
      0.000316      0.000004      0.000000
      0.000324      0.000004      0.000000
      0.000332      0.000004      0.000000
      0.000340      0.000004      0.000000
      0.000348      0.000004      0.000000
      0.000355      0.000004      0.000000
      0.000363      0.000004      0.000000
      0.000371      0.000004      0.000000
      0.000379      0.000004      0.000000
      0.000387      0.000004      0.000000
      0.000395      0.000004      0.000000
      0.000402      0.000004      0.000000
      0.000410      0.000004      0.000000
      0.000418      0.000004      0.000000
      0.000426      0.000004      0.000000
      0.000434      0.000004      0.000000
      0.000441      0.000004      0.000000
      0.000449      0.000004      0.000000
      0.000457      0.000004      0.000000
      0.000465      0.000004      0.000000
      0.000473      0.000004      0.000000
      0.000480      0.000004      0.000000
      0.000488      0.000004      0.000000
      0.000496      0.000004      0.000000
      0.000504      0.000004      0.000000
      0.000512      0.000004      0.000000
      0.000520      0.000004      0.000000
      0.000527      0.000004      0.000000
      0.000535      0.000004      0.000000
      0.000543      0.000004      0.000000
      0.000551      0.000004      0.000000
      0.000559      0.000004      0.000000
      0.000566      0.000004      0.000000
      0.000574      0.000004      0.000000
      0.000582      0.000004      0.000000
      0.000590      0.000004      0.000000
      0.000598      0.000004      0.000000
      0.000605      0.000004      0.000000
      0.000613      0.000004      0.000000
      0.000621      0.000004      0.000000
      0.000629      0.000004      0.000000
      0.000637      0.000004      0.000000
      0.000645      0.000004      0.000000
      0.000652      0.000004      0.000000
      0.000660      0.000004      0.000000
      0.000668      0.000004      0.000000
      0.000676      0.000004      0.000000
      0.000684      0.000004      0.000000
      0.000691      0.000004      0.000000
      0.000699      0.000004      0.000000
      0.000707      0.000004      0.000000
      0.000715      0.000004      0.000000
      0.000723      0.000004      0.000000
      0.000730      0.000004      0.000000
      0.000738      0.000004      0.000000
      0.000746      0.000004      0.000000
      0.000754      0.000004      0.000000
      0.000762      0.000004      0.000000
      0.000770      0.000004      0.000000
      0.000777      0.000004      0.000000
      0.000785      0.000004      0.000000
      0.000793      0.000004      0.000000
      0.000801      0.000004      0.000000
      0.000809      0.000004      0.000000
      0.000816      0.000004      0.000000
      0.000824      0.000004      0.000000
      0.000832      0.000004      0.000000
      0.000840      0.000004      0.000000
      0.000848      0.000004      0.000000
      0.000855      0.000004      0.000000
      0.000863      0.000004      0.000000
      0.000871      0.000004      0.000000
      0.000879      0.000004      0.000000
      0.000887      0.000004      0.000000
      0.000895      0.000004      0.000000
      0.000902      0.000004      0.000000
      0.000910      0.000004      0.000000
      0.000918      0.000004      0.000000
      0.000926      0.000004      0.000000
      0.000934      0.000004      0.000000
      0.000941      0.000004      0.000000
      0.000949      0.000004      0.000000
      0.000957      0.000004      0.000000
      0.000965      0.000004      0.000000
      0.000973      0.000004      0.000000
      0.000980      0.000004      0.000000
      0.000988      0.000004      0.000000
      0.000996      0.000004      0.000000
      0.000004      0.000012      0.000000
      0.000012      0.000012      0.000000
      0.000020      0.000012      0.000000
      0.000027      0.000012      0.000000
      0.000035      0.000012      0.000000
      0.000043      0.000012      0.000000
      0.000051      0.000012      0.000000
      0.000059      0.000012      0.000000
      0.000066      0.000012      0.000000
      0.000074      0.000012      0.000000
      0.000082      0.000012      0.000000
      0.000090      0.000012      0.000000
      0.000098      0.000012      0.000000
      0.000105      0.000012      0.000000
      0.000113      0.000012      0.000000
      0.000121      0.000012      0.000000
      0.000129      0.000012      0.000000
      0.000137      0.000012      0.000000
      0.000145      0.000012      0.000000
      0.000152      0.000012      0.000000
      0.000160      0.000012      0.000000
      0.000168      0.000012      0.000000
      0.000176      0.000012      0.000000
      0.000184      0.000012      0.000000
      0.000191      0.000012      0.000000
      0.000199      0.000012      0.000000
      0.000207      0.000012      0.000000
      0.000215      0.000012      0.000000
      0.000223      0.000012      0.000000
      0.000230      0.000012      0.000000
      0.000238      0.000012      0.000000
      0.000246      0.000012      0.000000
      0.000254      0.000012      0.000000
      0.000262      0.000012      0.000000
      0.000270      0.000012      0.000000
      0.000277      0.000012      0.000000
      0.000285      0.000012      0.000000
      0.000293      0.000012      0.000000
      0.000301      0.000012      0.000000
      0.000309      0.000012      0.000000
      0.000316      0.000012      0.000000
      0.000324      0.000012      0.000000
      0.000332      0.000012      0.000000
      0.000340      0.000012      0.000000
      0.000348      0.000012      0.000000
      0.000355      0.000012      0.000000
      0.000363      0.000012      0.000000
      0.000371      0.000012      0.000000
      0.000379      0.000012      0.000000
      0.000387      0.000012      0.000000
      0.000395      0.000012      0.000000
      0.000402      0.000012      0.000000
      0.000410      0.000012      0.000000
      0.000418      0.000012      0.000000
      0.000426      0.000012      0.000000
      0.000434      0.000012      0.000000
      0.000441      0.000012      0.000000
      0.000449      0.000012      0.000000
      0.000457      0.000012      0.000000
      0.000465      0.000012      0.000000
      0.000473      0.000012      0.000000
      0.000480      0.000012      0.000000
      0.000488      0.000012      0.000000
      0.000496      0.000012      0.000000
      0.000504      0.000012      0.000000
      0.000512      0.000012      0.000000
      0.000520      0.000012      0.000000
      0.000527      0.000012      0.000000
      0.000535      0.000012      0.000000
      0.000543      0.000012      0.000000
      0.000551      0.000012      0.000000
      0.000559      0.000012      0.000000
      0.000566      0.000012      0.000000
      0.000574      0.000012      0.000000
      0.000582      0.000012      0.000000
      0.000590      0.000012      0.000000
      0.000598      0.000012      0.000000
      0.000605      0.000012      0.000000
      0.000613      0.000012      0.000000
      0.000621      0.000012      0.000000
      0.000629      0.000012      0.000000
      0.000637      0.000012      0.000000
      0.000645      0.000012      0.000000
      0.000652      0.000012      0.000000
      0.000660      0.000012      0.000000
      0.000668      0.000012      0.000000
      0.000676      0.000012      0.000000
      0.000684      0.000012      0.000000
      0.000691      0.000012      0.000000
      0.000699      0.000012      0.000000
      0.000707      0.000012      0.000000
      0.000715      0.000012      0.000000
      0.000723      0.000012      0.000000
      0.000730      0.000012      0.000000
      0.000738      0.000012      0.000000
      0.000746      0.000012      0.000000
      0.000754      0.000012      0.000000
      0.000762      0.000012      0.000000
      0.000770      0.000012      0.000000
      0.000777      0.000012      0.000000
      0.000785      0.000012      0.000000
[...]
POINT_DATA 16384
SCALARS rhoe double
LOOKUP_TABLE default
 0.911563E-013
 0.911531E-013
 0.911834E-013
 0.912125E-013
 0.912416E-013
 0.912707E-013
 0.912998E-013
 0.913289E-013
 0.913580E-013
 0.913871E-013
 0.914162E-013
 0.914452E-013
 0.914742E-013
 0.915032E-013
 0.915321E-013
 0.915610E-013
 0.915898E-013
 0.916186E-013
 0.916473E-013
 0.916760E-013
 0.917045E-013
 0.917330E-013
 0.917614E-013
 0.917896E-013
 0.918177E-013
 0.918456E-013
 0.918733E-013
 0.919009E-013
 0.919282E-013
 0.919553E-013
 0.919821E-013
 0.920086E-013
 0.920348E-013
 0.920607E-013
 0.920862E-013
 0.921113E-013
 0.921360E-013
 0.921602E-013
 0.921840E-013
 0.922072E-013
 0.922298E-013
 0.922518E-013
 0.922733E-013
 0.922940E-013
 0.923141E-013
 0.923334E-013
 0.923519E-013
 0.923697E-013
 0.923866E-013
 0.924026E-013
 0.924177E-013
 0.924319E-013
 0.924452E-013
 0.924574E-013
 0.924686E-013
 0.924788E-013
 0.924879E-013
 0.924959E-013
 0.925028E-013
 0.925086E-013
 0.925132E-013
 0.925167E-013
 0.925190E-013
 0.925202E-013
 0.925202E-013
 0.925190E-013
 0.925167E-013
 0.925132E-013
 0.925086E-013
 0.925028E-013
 0.924960E-013
 0.924880E-013
 0.924789E-013
 0.924687E-013
 0.924575E-013
 0.924453E-013
 0.924321E-013
 0.924179E-013
 0.924027E-013
 0.923867E-013
 0.923698E-013
 0.923521E-013
 0.923336E-013
 0.923142E-013
 0.922942E-013
 0.922735E-013
 0.922520E-013
 0.922300E-013
 0.922074E-013
 0.921842E-013
 0.921605E-013
 0.921362E-013
 0.921116E-013
 0.920865E-013
 0.920610E-013
 0.920351E-013
 0.920089E-013
 0.919823E-013
 0.919555E-013
 0.919284E-013
 0.919011E-013
 0.918736E-013
 0.918458E-013
 0.918179E-013
 0.917898E-013
 0.917616E-013
 0.917333E-013
 0.917048E-013
 0.916762E-013
 0.916476E-013
 0.916189E-013
 0.915901E-013
 0.915612E-013
 0.915323E-013
 0.915034E-013
 0.914744E-013
 0.914454E-013
 0.914163E-013
 0.913873E-013
 0.913582E-013
 0.913291E-013
 0.913000E-013
 0.912708E-013
 0.912417E-013
 0.912125E-013
 0.911834E-013
 0.911532E-013
 0.911563E-013
 0.911531E-013
 0.910898E-013
 0.910909E-013
 0.910898E-013
 0.910889E-013
 0.910879E-013
 0.910869E-013
 0.910859E-013
 0.910849E-013
 0.910839E-013
 0.910830E-013
 0.910820E-013
 0.910810E-013
 0.910800E-013
 0.910791E-013
 0.910781E-013
 0.910771E-013
 0.910762E-013
 0.910752E-013
 0.910743E-013
 0.910733E-013
 0.910724E-013
 0.910715E-013
 0.910706E-013
 0.910696E-013
 0.910687E-013
 0.910678E-013
 0.910670E-013
 0.910661E-013
 0.910652E-013
 0.910644E-013
 0.910636E-013
 0.910628E-013
 0.910620E-013
 0.910612E-013
 0.910604E-013
 0.910597E-013
 0.910590E-013
 0.910583E-013
 0.910576E-013
 0.910570E-013
 0.910563E-013
 0.910557E-013
 0.910551E-013
 0.910546E-013
 0.910541E-013
 0.910536E-013
 0.910531E-013
 0.910526E-013
 0.910522E-013
 0.910518E-013
 0.910515E-013
 0.910511E-013
 0.910508E-013
 0.910505E-013
 0.910503E-013
 0.910500E-013
 0.910499E-013
 0.910497E-013
 0.910495E-013
 0.910494E-013
 0.910493E-013
 0.910493E-013
 0.910493E-013
 0.910493E-013
 0.910493E-013
 0.910493E-013
 0.910494E-013
 0.910495E-013
 0.910497E-013
 0.910498E-013
 0.910500E-013
 0.910503E-013
 0.910505E-013
 0.910508E-013
 0.910511E-013
 0.910514E-013
 0.910518E-013
 0.910522E-013
 0.910526E-013
 0.910531E-013
 0.910535E-013
 0.910540E-013
 0.910546E-013
 0.910551E-013
 0.910557E-013
 0.910563E-013
 0.910569E-013
 0.910576E-013
 0.910582E-013
 0.910589E-013
 0.910597E-013
 0.910604E-013
 0.910612E-013
 0.910619E-013
 0.910627E-013
 0.910635E-013
 0.910644E-013
 0.910652E-013
 0.910661E-013
 0.910669E-013
 0.910678E-013
 0.910687E-013
 0.910696E-013
 0.910705E-013
 0.910714E-013
 0.910724E-013
 0.910733E-013
 0.910742E-013
 0.910752E-013
 0.910761E-013
 0.910771E-013
 0.910781E-013
 0.910790E-013
 0.910800E-013
 0.910810E-013
 0.910819E-013
 0.910829E-013
 0.910839E-013
 0.910849E-013
 0.910859E-013
 0.910869E-013
 0.910878E-013
 0.910888E-013
 0.910898E-013
 0.910909E-013
 0.910898E-013
 0.911532E-013
 0.911834E-013
 0.910909E-013
 0.910940E-013
 0.910939E-013
 0.910940E-013
 0.910940E-013
 0.910940E-013
 0.910941E-013
 0.910941E-013
 0.910941E-013
 0.910942E-013
 0.910942E-013
 0.910942E-013
 0.910943E-013
 0.910943E-013
 0.910943E-013
 0.910944E-013
 0.910944E-013
 0.910945E-013
 0.910945E-013
 0.910946E-013
 0.910946E-013
 0.910947E-013
 0.910947E-013
 0.910948E-013
 0.910949E-013
 0.910950E-013
 0.910950E-013
 0.910951E-013
 0.910952E-013
 0.910953E-013
 0.910954E-013
 0.910955E-013
 0.910957E-013
 0.910958E-013
 0.910959E-013
 0.910960E-013
 0.910962E-013
 0.910963E-013
 0.910965E-013
 0.910966E-013
 0.910968E-013
 0.910969E-013
 0.910971E-013
 0.910972E-013
 0.910974E-013
 0.910976E-013
 0.910977E-013
 0.910979E-013
 0.910980E-013
 0.910982E-013
 0.910983E-013
 0.910985E-013
 0.910986E-013
 0.910987E-013
 0.910988E-013
 0.910989E-013
 0.910990E-013
 0.910991E-013
 0.910992E-013
 0.910992E-013
 0.910993E-013
 0.910993E-013
 0.910993E-013
 0.910993E-013
 0.910993E-013
 0.910993E-013
 0.910992E-013
 0.910992E-013
 0.910991E-013
 0.910990E-013
 0.910989E-013
 0.910988E-013
 0.910987E-013
 0.910986E-013
 0.910985E-013
 0.910983E-013
 0.910982E-013
 0.910980E-013
 0.910979E-013
 0.910977E-013
 0.910975E-013
 0.910974E-013
 0.910972E-013
 0.910971E-013
 0.910969E-013
 0.910968E-013
 0.910966E-013
 0.910964E-013
 0.910963E-013
 0.910962E-013
 0.910960E-013
 0.910959E-013
 0.910958E-013
 0.910956E-013
 0.910955E-013
 0.910954E-013
 0.910953E-013
 0.910952E-013
 0.910951E-013
 0.910950E-013
 0.910950E-013
 0.910949E-013
 0.910948E-013
 0.910947E-013
 0.910947E-013
 0.910946E-013
 0.910946E-013
 0.910945E-013
 0.910945E-013
 0.910944E-013
 0.910944E-013
 0.910943E-013
 0.910943E-013
 0.910942E-013
 0.910942E-013
 0.910942E-013
 0.910941E-013
 0.910941E-013
 0.910941E-013
 0.910941E-013
 0.910940E-013
 0.910940E-013
 0.910940E-013
 0.910939E-013
 0.910940E-013
 0.910909E-013
 0.911834E-013
 0.912125E-013
 0.910898E-013
 0.910939E-013
 0.910939E-013
 0.910939E-013
 0.910939E-013
 0.910939E-013
 0.910939E-013
 0.910939E-013
 0.910939E-013
 0.910939E-013
 0.910939E-013
 0.910939E-013
 0.910940E-013
 0.910940E-013
 0.910940E-013
 0.910940E-013
 0.910940E-013
 0.910941E-013
 0.910941E-013
 0.910941E-013
 0.910942E-013
 0.910942E-013
 0.910943E-013
 0.910943E-013
 0.910944E-013
 0.910945E-013
 0.910945E-013
 0.910946E-013
 0.910947E-013
 0.910948E-013
 0.910949E-013
 0.910950E-013
 0.910951E-013
 0.910952E-013
 0.910954E-013
 0.910955E-013
 0.910956E-013
 0.910958E-013
 0.910959E-013
 0.910961E-013
 0.910963E-013
 0.910964E-013
 0.910966E-013
 0.910968E-013
 0.910970E-013
 0.910971E-013
 0.910973E-013
 0.910975E-013
 0.910976E-013
 0.910978E-013
 0.910980E-013
 0.910981E-013
 0.910983E-013
 0.910984E-013
 0.910985E-013
 0.910987E-013
 0.910988E-013
 0.910988E-013
 0.910989E-013
 0.910990E-013
 0.910990E-013
 0.910991E-013
 0.910991E-013
 0.910991E-013
 0.910991E-013
 0.910990E-013
 0.910990E-013
 0.910989E-013
 0.910988E-013
 0.910988E-013
 0.910986E-013
 0.910985E-013
 0.910984E-013
 0.910983E-013
 0.910981E-013
 0.910980E-013
 0.910978E-013
 0.910976E-013
 0.910975E-013
 0.910973E-013
 0.910971E-013
 0.910969E-013
 0.910968E-013
 0.910966E-013
 0.910964E-013
 0.910963E-013
 0.910961E-013
 0.910959E-013
 0.910958E-013
 0.910956E-013
 0.910955E-013
 0.910954E-013
 0.910952E-013
 0.910951E-013
 0.910950E-013
 0.910949E-013
 0.910948E-013
 0.910947E-013
 0.910946E-013
 0.910945E-013
 0.910944E-013
 0.910944E-013
 0.910943E-013
 0.910943E-013
 0.910942E-013
 0.910942E-013
 0.910941E-013
 0.910941E-013
 0.910941E-013
 0.910940E-013
 0.910940E-013
 0.910940E-013
 0.910940E-013
 0.910939E-013
 0.910939E-013
 0.910939E-013
 0.910939E-013
 0.910939E-013
 0.910939E-013
 0.910939E-013
 0.910939E-013
 0.910939E-013
 0.910939E-013
 0.910939E-013
 0.910939E-013
 0.910898E-013
 0.912126E-013
 0.912416E-013
 0.910889E-013
 0.910940E-013
 0.910939E-013
 0.910939E-013
 0.910939E-013
 0.910939E-013
 0.910939E-013
 0.910939E-013
 0.910939E-013
 0.910939E-013
 0.910939E-013
 0.910940E-013
 0.910940E-013
 0.910940E-013
 0.910940E-013
 0.910941E-013
 0.910941E-013
 0.910941E-013
 0.910942E-013
 0.910942E-013
 0.910943E-013
 0.910943E-013
 0.910944E-013
 0.910944E-013
 0.910945E-013
 0.910946E-013
 0.910947E-013
 0.910948E-013
 0.910949E-013
 0.910950E-013
 0.910951E-013
 0.910952E-013
 0.910954E-013
 0.910955E-013
 0.910957E-013
 0.910958E-013
 0.910960E-013
 0.910962E-013
 0.910964E-013
 0.910966E-013
 0.910968E-013
 0.910970E-013
 0.910972E-013
 0.910974E-013
 0.910976E-013
 0.910978E-013
 0.910980E-013
 0.910982E-013
 0.910984E-013
 0.910986E-013
 0.910988E-013
 0.910990E-013
 0.910992E-013
 0.910994E-013
 0.910995E-013
 0.910996E-013
 0.910998E-013
 0.910999E-013
 0.911000E-013
 0.911000E-013
 0.911001E-013
 0.911001E-013
 0.911002E-013
 0.911002E-013
 0.911001E-013
 0.911001E-013
 0.911000E-013
 0.911000E-013
 0.910999E-013
 0.910998E-013
 0.910996E-013
 0.910995E-013
 0.910993E-013
 0.910992E-013
 0.910990E-013
 0.910988E-013
 0.910986E-013
 0.910984E-013
 0.910982E-013
 0.910980E-013
 0.910978E-013
 0.910976E-013
 0.910974E-013
 0.910972E-013
 0.910970E-013
 0.910968E-013
 0.910966E-013
 0.910964E-013
 0.910962E-013
 0.910960E-013
 0.910958E-013
 0.910957E-013
 0.910955E-013
 0.910954E-013
 0.910952E-013
 0.910951E-013
 0.910950E-013
 0.910949E-013
 0.910948E-013
 0.910947E-013
 0.910946E-013
 0.910945E-013
 0.910944E-013
 0.910944E-013
 0.910943E-013
 0.910942E-013
 0.910942E-013
 0.910941E-013
 0.910941E-013
 0.910941E-013
 0.910940E-013
 0.910940E-013
 0.910940E-013
 0.910940E-013
 0.910939E-013
 0.910939E-013
 0.910939E-013
 0.910939E-013
 0.910939E-013
 0.910939E-013
 0.910939E-013
 0.910939E-013
 0.910939E-013
 0.910939E-013
 0.910940E-013
 0.910888E-013
 0.912417E-013
 0.912707E-013
 0.910879E-013
 0.910940E-013
 0.910939E-013
 0.910939E-013
 0.910939E-013
 0.910939E-013
 0.910939E-013
 0.910939E-013
 0.910939E-013
 0.910939E-013
 0.910940E-013
 0.910940E-013
 0.910940E-013
 0.910940E-013
 0.910941E-013
 0.910941E-013
 0.910941E-013
 0.910942E-013
 0.910942E-013
 0.910943E-013
 0.910943E-013
 0.910944E-013
 0.910945E-013
 0.910946E-013
 0.910946E-013
 0.910947E-013
 0.910948E-013
 0.910950E-013
 0.910951E-013
 0.910952E-013
 0.910954E-013
 0.910955E-013
 0.910957E-013
 0.910959E-013
 0.910960E-013
 0.910962E-013
 0.910964E-013
 0.910967E-013
 0.910969E-013
 0.910971E-013
 0.910973E-013
 0.910976E-013
 0.910978E-013
 0.910981E-013
 0.910983E-013
 0.910986E-013
 0.910988E-013
 0.910991E-013
 0.910993E-013
 0.910996E-013
 0.910998E-013
 0.911000E-013
 0.911002E-013
 0.911004E-013
 0.911006E-013
 0.911008E-013
 0.911009E-013
 0.911011E-013
 0.911012E-013
 0.911013E-013
 0.911013E-013
 0.911014E-013
 0.911014E-013
 0.911014E-013
 0.911014E-013
 0.911013E-013
 0.911013E-013
 0.911012E-013
 0.911011E-013
 0.911009E-013
 0.911008E-013
 0.911006E-013
 0.911004E-013
 0.911002E-013
 0.911000E-013
 0.910998E-013
 0.910996E-013
 0.910993E-013
 0.910991E-013
 0.910988E-013
 0.910986E-013
 0.910983E-013
 0.910981E-013
 0.910978E-013
 0.910976E-013
 0.910973E-013
 0.910971E-013
 0.910969E-013
 0.910966E-013
 0.910964E-013
 0.910962E-013
 0.910960E-013
 0.910958E-013
 0.910957E-013
 0.910955E-013
 0.910953E-013
 0.910952E-013
 0.910951E-013
 0.910949E-013
 0.910948E-013
 0.910947E-013
 0.910946E-013
 0.910945E-013
 0.910945E-013
 0.910944E-013
 0.910943E-013
 0.910943E-013
 0.910942E-013
 0.910942E-013
 0.910941E-013
 0.910941E-013
 0.910940E-013
 0.910940E-013
 0.910940E-013
 0.910940E-013
 0.910940E-013
 0.910939E-013
 0.910939E-013
 0.910939E-013
 0.910939E-013
 0.910939E-013
 0.910939E-013
 0.910939E-013
 0.910939E-013
 0.910940E-013
 0.910878E-013
 0.912708E-013
 0.912998E-013
 0.910869E-013
 0.910940E-013
 0.910939E-013
 0.910939E-013
 0.910939E-013
 0.910939E-013
 0.910939E-013
 0.910939E-013
 0.910940E-013
 0.910940E-013
 0.910940E-013
 0.910940E-013
 0.910940E-013
 0.910941E-013
 0.910941E-013
 0.910941E-013
 0.910942E-013
 0.910942E-013
 0.910943E-013
 0.910944E-013
 0.910944E-013
 0.910945E-013
 0.910946E-013
 0.910947E-013
 0.910948E-013
 0.910949E-013
 0.910950E-013
 0.910952E-013
 0.910953E-013
 0.910955E-013
 0.910957E-013
 0.910958E-013
 0.910960E-013
 0.910962E-013
 0.910965E-013
 0.910967E-013
 0.910969E-013
 0.910972E-013
 0.910975E-013
 0.910977E-013
 0.910980E-013
 0.910983E-013
 0.910986E-013
 0.910989E-013
 0.910992E-013
 0.910995E-013
 0.910998E-013
 0.911001E-013
 0.911004E-013
 0.911007E-013
 0.911010E-013
 0.911012E-013
 0.911015E-013
 0.911017E-013
 0.911019E-013
 0.911021E-013
 0.911023E-013
 0.911025E-013
 0.911026E-013
 0.911027E-013
 0.911028E-013
 0.911028E-013
 0.911029E-013
 0.911029E-013
 0.911028E-013
 0.911028E-013
 0.911027E-013
 0.911026E-013
 0.911025E-013
 0.911023E-013
 0.911021E-013
 0.911019E-013
 0.911017E-013
 0.911015E-013
 0.911012E-013
 0.911009E-013
 0.911007E-013
 0.911004E-013
 0.911001E-013
 0.910998E-013
 0.910995E-013
 0.910992E-013
 0.910989E-013
 0.910986E-013
 0.910983E-013
 0.910980E-013
 0.910977E-013
 0.910974E-013
 0.910972E-013
 0.910969E-013
 0.910967E-013
 0.910965E-013
 0.910962E-013
 0.910960E-013
 0.910958E-013
 0.910956E-013
 0.910955E-013
 0.910953E-013
 0.910952E-013
 0.910950E-013
 0.910949E-013
 0.910948E-013
 0.910947E-013
 0.910946E-013
 0.910945E-013
 0.910944E-013
 0.910943E-013
 0.910943E-013
 0.910942E-013
 0.910942E-013
 0.910941E-013
 0.910941E-013
 0.910941E-013
 0.910940E-013
 0.910940E-013
 0.910940E-013
 0.910940E-013
 0.910939E-013
 0.910939E-013
 0.910939E-013
 0.910939E-013
 0.910939E-013
 0.910939E-013
 0.910939E-013
 0.910940E-013
 0.910869E-013
 0.913000E-013
 0.913289E-013
 0.910859E-013
 0.910941E-013
 0.910939E-013
 0.910939E-013
 0.910939E-013
 0.910939E-013
 0.910939E-013
 0.910940E-013
 0.910940E-013
 0.910940E-013
 0.910940E-013
 0.910940E-013
 0.910941E-013
 0.910941E-013
 0.910942E-013
 0.910942E-013
 0.910943E-013
 0.910943E-013
 0.910944E-013
 0.910945E-013
 0.910945E-013
 0.910946E-013
 0.910947E-013
 0.910949E-013
 0.910950E-013
 0.910951E-013
 0.910953E-013
 0.910954E-013
 0.910956E-013
 0.910958E-013
 0.910960E-013
 0.910962E-013
 0.910965E-013
 0.910967E-013
 0.910970E-013
 0.910972E-013
 0.910975E-013
 0.910978E-013
 0.910981E-013
 0.910985E-013
 0.910988E-013
 0.910992E-013
 0.910995E-013
 0.910999E-013
 0.911002E-013
 0.911006E-013
 0.911009E-013
 0.911013E-013
 0.911016E-013
 0.911020E-013
 0.911023E-013
 0.911026E-013
 0.911029E-013
 0.911032E-013
 0.911035E-013
 0.911037E-013
 0.911039E-013
 0.911041E-013
 0.911043E-013
 0.911044E-013
 0.911045E-013
 0.911045E-013
 0.911046E-013
 0.911046E-013
 0.911045E-013
 0.911045E-013
 0.911044E-013
 0.911043E-013
 0.911041E-013
 0.911039E-013
 0.911037E-013
 0.911035E-013
 0.911032E-013
 0.911029E-013
 0.911026E-013
 0.911023E-013
 0.911020E-013
 0.911016E-013
 0.911013E-013
 0.911009E-013
 0.911006E-013
 0.911002E-013
 0.910998E-013
 0.910995E-013
 0.910991E-013
 0.910988E-013
 0.910985E-013
 0.910981E-013
 0.910978E-013
 0.910975E-013
 0.910972E-013
 0.910969E-013
 0.910967E-013
 0.910964E-013
 0.910962E-013
 0.910960E-013
 0.910958E-013
 0.910956E-013
 0.910954E-013
 0.910952E-013
 0.910951E-013
 0.910950E-013
 0.910948E-013
 0.910947E-013
 0.910946E-013
 0.910945E-013
 0.910944E-013
 0.910944E-013
 0.910943E-013
 0.910942E-013
 0.910942E-013
 0.910941E-013
 0.910941E-013
 0.910941E-013
 0.910940E-013
 0.910940E-013
 0.910940E-013
 0.910940E-013
 0.910939E-013
 0.910939E-013
 0.910939E-013
 0.910939E-013
 0.910939E-013
 0.910939E-013
 0.910940E-013
 0.910859E-013
 0.913291E-013
 0.913580E-013
 0.910849E-013
 0.910941E-013
 0.910939E-013
 0.910939E-013
 0.910939E-013
 0.910939E-013
 0.910940E-013
 0.910940E-013
 0.910940E-013
 0.910940E-013
 0.910940E-013
 0.910941E-013
 0.910941E-013
 0.910942E-013
 0.910942E-013
 0.910943E-013
 0.910943E-013
 0.910944E-013
 0.910945E-013
 0.910946E-013
 0.910947E-013
 0.910948E-013
 0.910949E-013
 0.910950E-013
 0.910952E-013
 0.910954E-013
 0.910955E-013
 0.910957E-013
 0.910959E-013
 0.910962E-013
 0.910964E-013
 0.910967E-013
 0.910969E-013
 0.910972E-013
 0.910975E-013
 0.910979E-013
 0.910982E-013
 0.910986E-013
 0.910989E-013
 0.910993E-013
 0.910997E-013
 0.911001E-013
 0.911006E-013
 0.911010E-013
 0.911014E-013
 0.911018E-013
 0.911023E-013
 0.911027E-013
 0.911031E-013
 0.911035E-013
 0.911039E-013
 0.911043E-013
 0.911046E-013
 0.911049E-013
 0.911052E-013
 0.911055E-013
 0.911058E-013
 0.911060E-013
 0.911062E-013
 0.911063E-013
 0.911065E-013
 0.911065E-013
 0.911066E-013
 0.911066E-013
 0.911065E-013
 0.911065E-013
 0.911063E-013
 0.911062E-013
 0.911060E-013
 0.911058E-013
 0.911055E-013
 0.911052E-013
 0.911049E-013
 0.911046E-013
 0.911042E-013
 0.911039E-013
 0.911035E-013
 0.911031E-013
 0.911027E-013
 0.911022E-013
 0.911018E-013
 0.911014E-013
 0.911010E-013
 0.911005E-013
 0.911001E-013
 0.910997E-013
 0.910993E-013
 0.910989E-013
 0.910986E-013
 0.910982E-013
 0.910979E-013
 0.910975E-013
 0.910972E-013
 0.910969E-013
 0.910966E-013
 0.910964E-013
 0.910961E-013
 0.910959E-013
 0.910957E-013
 0.910955E-013
 0.910953E-013
 0.910952E-013
 0.910950E-013
 0.910949E-013
 0.910948E-013
 0.910946E-013
 0.910945E-013
 0.910945E-013
 0.910944E-013
 0.910943E-013
 0.910942E-013
 0.910942E-013
 0.910941E-013
 0.910941E-013
 0.910941E-013
 0.910940E-013
 0.910940E-013
 0.910940E-013
 0.910940E-013
 0.910939E-013
 0.910939E-013
 0.910939E-013
 0.910939E-013
 0.910939E-013
 0.910941E-013
 0.910849E-013
 0.913582E-013
 0.913871E-013
 0.910839E-013
 0.910941E-013
 0.910939E-013
 0.910939E-013
 0.910939E-013
 0.910940E-013
 0.910940E-013
 0.910940E-013
 0.910940E-013
 0.910940E-013
 0.910941E-013
 0.910941E-013
 0.910942E-013
 0.910942E-013
 0.910943E-013
 0.910943E-013
 0.910944E-013
 0.910945E-013
 0.910946E-013
 0.910947E-013
 0.910948E-013
 0.910950E-013
 0.910951E-013
 0.910953E-013
 0.910954E-013
 0.910956E-013
 0.910958E-013
 0.910961E-013
 0.910963E-013
 0.910966E-013
 0.910969E-013
 0.910972E-013
 0.910975E-013
 0.910978E-013
 0.910982E-013
 0.910986E-013
 0.910990E-013
 0.910994E-013
 0.910999E-013
 0.911003E-013
 0.911008E-013
 0.911013E-013
 0.911018E-013
 0.911023E-013
 0.911028E-013
 0.911033E-013
 0.911038E-013
 0.911043E-013
 0.911048E-013
 0.911052E-013
 0.911057E-013
 0.911061E-013
 0.911066E-013
 0.911070E-013
 0.911073E-013
 0.911077E-013
 0.911080E-013
 0.911082E-013
 0.911084E-013
 0.911086E-013
 0.911088E-013
 0.911088E-013
 0.911089E-013
 0.911089E-013
 0.911088E-013
 0.911088E-013
 0.911086E-013
 0.911084E-013
 0.911082E-013
 0.911080E-013
 0.911077E-013
 0.911073E-013
 0.911070E-013
 0.911066E-013
 0.911061E-013
 0.911057E-013
 0.911052E-013
 0.911048E-013
 0.911043E-013
 0.911038E-013
 0.911033E-013
 0.911028E-013
 0.911023E-013
 0.911018E-013
 0.911013E-013
 0.911008E-013
 0.911003E-013
 0.910999E-013
 0.910994E-013
 0.910990E-013
 0.910986E-013
 0.910982E-013
 0.910978E-013
 0.910975E-013
 0.910971E-013
 0.910968E-013
 0.910966E-013
 0.910963E-013
 0.910960E-013
 0.910958E-013
 0.910956E-013
 0.910954E-013
 0.910952E-013
 0.910951E-013
 0.910949E-013
 0.910948E-013
 0.910947E-013
 0.910946E-013
 0.910945E-013
 0.910944E-013
 0.910943E-013
 0.910943E-013
 0.910942E-013
 0.910941E-013
 0.910941E-013
 0.910941E-013
 0.910940E-013
 0.910940E-013
 0.910940E-013
 0.910940E-013
 0.910939E-013
 0.910939E-013
 0.910939E-013
 0.910939E-013
 0.910941E-013
 0.910839E-013
 0.913873E-013
 0.914162E-013
 0.910830E-013
 0.910942E-013
 0.910939E-013
 0.910939E-013
 0.910939E-013
 0.910940E-013
 0.910940E-013
 0.910940E-013
 0.910940E-013
 0.910941E-013
 0.910941E-013
 0.910942E-013
 0.910942E-013
 0.910943E-013
 0.910944E-013
 0.910944E-013
 0.910945E-013
 0.910946E-013
 0.910947E-013
 0.910949E-013
 0.910950E-013
 0.910951E-013
 0.910953E-013
 0.910955E-013
 0.910957E-013
 0.910959E-013
 0.910962E-013
 0.910965E-013
 0.910967E-013
 0.910971E-013
 0.910974E-013
 0.910978E-013
 0.910981E-013
 0.910986E-013
 0.910990E-013
 0.910995E-013
 0.910999E-013
 0.911004E-013
 0.911010E-013
 0.911015E-013
 0.911020E-013
 0.911026E-013
 0.911032E-013
 0.911038E-013
 0.911044E-013
 0.911050E-013
 0.911056E-013
 0.911061E-013