# vtk DataFile Version 3.0
Solution data
ASCII
DATASET STRUCTURED_GRID
DIMENSIONS 128 128 1
POINTS 16384  double
      0.000004      0.000004      0.000000
      0.000012      0.000004      0.000000
      0.000020      0.000004      0.000000
      0.000027      0.000004      0.000000
      0.000035      0.000004      0.000000
      0.000043      0.000004      0.000000
      0.000051      0.000004      0.000000
      0.000059      0.000004      0.000000
      0.000066      0.000004      0.000000
      0.000074      0.000004      0.000000
      0.000082      0.000004      0.000000
      0.000090      0.000004      0.000000
      0.000098      0.000004      0.000000
      0.000105      0.000004      0.000000
      0.000113      0.000004      0.000000
      0.000121      0.000004      0.000000
      0.000129      0.000004      0.000000
      0.000137      0.000004      0.000000
      0.000145      0.000004      0.000000
      0.000152      0.000004      0.000000
      0.000160      0.000004      0.000000
      0.000168      0.000004      0.000000
      0.000176      0.000004      0.000000
      0.000184      0.000004      0.000000
      0.000191      0.000004      0.000000
      0.000199      0.000004      0.000000
      0.000207      0.000004      0.000000
      0.000215      0.000004      0.000000
      0.000223      0.000004      0.000000
      0.000230      0.000004      0.000000
      0.000238      0.000004      0.000000
      0.000246      0.000004      0.000000
      0.000254      0.000004      0.000000
      0.000262      0.000004      0.000000
      0.000270      0.000004      0.000000
      0.000277      0.000004      0.000000
      0.000285      0.000004      0.000000
      0.000293      0.000004      0.000000
      0.000301      0.000004      0.000000
      0.000309      0.000004      0.000000
      0.000316      0.000004      0.000000
      0.000324      0.000004      0.000000
      0.000332      0.000004      0.000000
      0.000340      0.000004      0.000000
      0.000348      0.000004      0.000000
      0.000355      0.000004      0.000000
      0.000363      0.000004      0.000000
      0.000371      0.000004      0.000000
      0.000379      0.000004      0.000000
      0.000387      0.000004      0.000000
      0.000395      0.000004      0.000000
      0.000402      0.000004      0.000000
      0.000410      0.000004      0.000000
      0.000418      0.000004      0.000000
      0.000426      0.000004      0.000000
      0.000434      0.000004      0.000000
      0.000441      0.000004      0.000000
      0.000449      0.000004      0.000000
      0.000457      0.000004      0.000000
      0.000465      0.000004      0.000000
      0.000473      0.000004      0.000000
      0.000480      0.000004      0.000000
      0.000488      0.000004      0.000000
      0.000496      0.000004      0.000000
      0.000504      0.000004      0.000000
      0.000512      0.000004      0.000000
      0.000520      0.000004      0.000000
      0.000527      0.000004      0.000000
      0.000535      0.000004      0.000000
      0.000543      0.000004      0.000000
      0.000551      0.000004      0.000000
      0.000559      0.000004      0.000000
      0.000566      0.000004      0.000000
      0.000574      0.000004      0.000000
      0.000582      0.000004      0.000000
      0.000590      0.000004      0.000000
      0.000598      0.000004      0.000000
      0.000605      0.000004      0.000000
      0.000613      0.000004      0.000000
      0.000621      0.000004      0.000000
      0.000629      0.000004      0.000000
      0.000637      0.000004      0.000000
      0.000645      0.000004      0.000000
      0.000652      0.000004      0.000000
      0.000660      0.000004      0.000000
      0.000668      0.000004      0.000000
      0.000676      0.000004      0.000000
      0.000684      0.000004      0.000000
      0.000691      0.000004      0.000000
      0.000699      0.000004      0.000000
      0.000707      0.000004      0.000000
      0.000715      0.000004      0.000000
      0.000723      0.000004      0.000000
      0.000730      0.000004      0.000000
      0.000738      0.000004      0.000000
      0.000746      0.000004      0.000000
      0.000754      0.000004      0.000000
      0.000762      0.000004      0.000000
      0.000770      0.000004      0.000000
      0.000777      0.000004      0.000000
      0.000785      0.000004      0.000000
      0.000793      0.000004      0.000000
      0.000801      0.000004      0.000000
      0.000809      0.000004      0.000000
      0.000816      0.000004      0.000000
      0.000824      0.000004      0.000000
      0.000832      0.000004      0.000000
      0.000840      0.000004      0.000000
      0.000848      0.000004      0.000000
      0.000855      0.000004      0.000000
      0.000863      0.000004      0.000000
      0.000871      0.000004      0.000000
      0.000879      0.000004      0.000000
      0.000887      0.000004      0.000000
      0.000895      0.000004      0.000000
      0.000902      0.000004      0.000000
      0.000910      0.000004      0.000000
      0.000918      0.000004      0.000000
      0.000926      0.000004      0.000000
      0.000934      0.000004      0.000000
      0.000941      0.000004      0.000000
      0.000949      0.000004      0.000000
      0.000957      0.000004      0.000000
      0.000965      0.000004      0.000000
      0.000973      0.000004      0.000000
      0.000980      0.000004      0.000000
      0.000988      0.000004      0.000000
      0.000996      0.000004      0.000000
      0.000004      0.000012      0.000000
      0.000012      0.000012      0.000000
      0.000020      0.000012      0.000000
      0.000027      0.000012      0.000000
      0.000035      0.000012      0.000000
      0.000043      0.000012      0.000000
      0.000051      0.000012      0.000000
      0.000059      0.000012      0.000000
      0.000066      0.000012      0.000000
      0.000074      0.000012      0.000000
      0.000082      0.000012      0.000000
      0.000090      0.000012      0.000000
      0.000098      0.000012      0.000000
      0.000105      0.000012      0.000000
      0.000113      0.000012      0.000000
      0.000121      0.000012      0.000000
      0.000129      0.000012      0.000000
      0.000137      0.000012      0.000000
      0.000145      0.000012      0.000000
      0.000152      0.000012      0.000000
      0.000160      0.000012      0.000000
      0.000168      0.000012      0.000000
      0.000176      0.000012      0.000000
      0.000184      0.000012      0.000000
      0.000191      0.000012      0.000000
      0.000199      0.000012      0.000000
      0.000207      0.000012      0.000000
      0.000215      0.000012      0.000000
      0.000223      0.000012      0.000000
      0.000230      0.000012      0.000000
      0.000238      0.000012      0.000000
      0.000246      0.000012      0.000000
      0.000254      0.000012      0.000000
      0.000262      0.000012      0.000000
      0.000270      0.000012      0.000000
      0.000277      0.000012      0.000000
      0.000285      0.000012      0.000000
      0.000293      0.000012      0.000000
      0.000301      0.000012      0.000000
      0.000309      0.000012      0.000000
      0.000316      0.000012      0.000000
      0.000324      0.000012      0.000000
      0.000332      0.000012      0.000000
      0.000340      0.000012      0.000000
      0.000348      0.000012      0.000000
      0.000355      0.000012      0.000000
      0.000363      0.000012      0.000000
      0.000371      0.000012      0.000000
      0.000379      0.000012      0.000000
      0.000387      0.000012      0.000000
      0.000395      0.000012      0.000000
      0.000402      0.000012      0.000000
      0.000410      0.000012      0.000000
      0.000418      0.000012      0.000000
      0.000426      0.000012      0.000000
      0.000434      0.000012      0.000000
      0.000441      0.000012      0.000000
      0.000449      0.000012      0.000000
      0.000457      0.000012      0.000000
      0.000465      0.000012      0.000000
      0.000473      0.000012      0.000000
      0.000480      0.000012      0.000000
      0.000488      0.000012      0.000000
      0.000496      0.000012      0.000000
      0.000504      0.000012      0.000000
      0.000512      0.000012      0.000000
      0.000520      0.000012      0.000000
      0.000527      0.000012      0.000000
      0.000535      0.000012      0.000000
      0.000543      0.000012      0.000000
      0.000551      0.000012      0.000000
      0.000559      0.000012      0.000000
      0.000566      0.000012      0.000000
      0.000574      0.000012      0.000000
      0.000582      0.000012      0.000000
      0.000590      0.000012      0.000000
      0.000598      0.000012      0.000000
      0.000605      0.000012      0.000000
      0.000613      0.000012      0.000000
      0.000621      0.000012      0.000000
      0.000629      0.000012      0.000000
      0.000637      0.000012      0.000000
      0.000645      0.000012      0.000000
      0.000652      0.000012      0.000000
      0.000660      0.000012      0.000000
      0.000668      0.000012      0.000000
      0.000676      0.000012      0.000000
      0.000684      0.000012      0.000000
      0.000691      0.000012      0.000000
      0.000699      0.000012      0.000000
      0.000707      0.000012      0.000000
      0.000715      0.000012      0.000000
      0.000723      0.000012      0.000000
      0.000730      0.000012      0.000000
      0.000738      0.000012      0.000000
      0.000746      0.000012      0.000000
      0.000754      0.000012      0.000000
      0.000762      0.000012      0.000000
      0.000770      0.000012      0.000000
      0.000777      0.000012      0.000000
      0.000785      0.000012      0.000000
[...]
POINT_DATA 16384
SCALARS rhoe double
LOOKUP_TABLE default
 0.914781E-013
 0.913173E-013
 0.914887E-013
 0.915789E-013
 0.916843E-013
 0.917871E-013
 0.918900E-013
 0.919926E-013
 0.920950E-013
 0.921971E-013
 0.922990E-013
 0.924006E-013
 0.925019E-013
 0.926029E-013
 0.927036E-013
 0.928039E-013
 0.929039E-013
 0.930035E-013
 0.931026E-013
 0.932013E-013
 0.932995E-013
 0.933971E-013
 0.934942E-013
 0.935906E-013
 0.936863E-013
 0.937813E-013
 0.938755E-013
 0.939688E-013
 0.940612E-013
 0.941526E-013
 0.942429E-013
 0.943321E-013
 0.944200E-013
 0.945066E-013
 0.945917E-013
 0.946754E-013
 0.947575E-013
 0.948379E-013
 0.949165E-013
 0.949932E-013
 0.950679E-013
 0.951405E-013
 0.952109E-013
 0.952790E-013
 0.953447E-013
 0.954079E-013
 0.954684E-013
 0.955263E-013
 0.955813E-013
 0.956334E-013
 0.956825E-013
 0.957285E-013
 0.957714E-013
 0.958109E-013
 0.958472E-013
 0.958800E-013
 0.959093E-013
 0.959351E-013
 0.959573E-013
 0.959759E-013
 0.959908E-013
 0.960021E-013
 0.960095E-013
 0.960133E-013
 0.960133E-013
 0.960095E-013
 0.960020E-013
 0.959908E-013
 0.959759E-013
 0.959573E-013
 0.959351E-013
 0.959092E-013
 0.958799E-013
 0.958471E-013
 0.958108E-013
 0.957712E-013
 0.957284E-013
 0.956824E-013
 0.956333E-013
 0.955811E-013
 0.955261E-013
 0.954683E-013
 0.954077E-013
 0.953445E-013
 0.952788E-013
 0.952107E-013
 0.951403E-013
 0.950677E-013
 0.949930E-013
 0.949163E-013
 0.948377E-013
 0.947573E-013
 0.946752E-013
 0.945915E-013
 0.945063E-013
 0.944197E-013
 0.943318E-013
 0.942427E-013
 0.941524E-013
 0.940610E-013
 0.939686E-013
 0.938753E-013
 0.937811E-013
 0.936861E-013
 0.935904E-013
 0.934940E-013
 0.933969E-013
 0.932993E-013
 0.932011E-013
 0.931024E-013
 0.930033E-013
 0.929037E-013
 0.928037E-013
 0.927034E-013
 0.926027E-013
 0.925017E-013
 0.924004E-013
 0.922988E-013
 0.921970E-013
 0.920949E-013
 0.919925E-013
 0.918899E-013
 0.917870E-013
 0.916842E-013
 0.915789E-013
 0.914887E-013
 0.913173E-013
 0.914780E-013
 0.913173E-013
 0.909250E-013
 0.909931E-013
 0.909376E-013
 0.909070E-013
 0.908726E-013
 0.908387E-013
 0.908050E-013
 0.907713E-013
 0.907377E-013
 0.907042E-013
 0.906708E-013
 0.906375E-013
 0.906044E-013
 0.905713E-013
 0.905384E-013
 0.905056E-013
 0.904730E-013
 0.904405E-013
 0.904082E-013
 0.903761E-013
 0.903441E-013
 0.903124E-013
 0.902808E-013
 0.902496E-013
 0.902185E-013
 0.901878E-013
 0.901573E-013
 0.901272E-013
 0.900974E-013
 0.900679E-013
 0.900389E-013
 0.900102E-013
 0.899820E-013
 0.899543E-013
 0.899271E-013
 0.899004E-013
 0.898742E-013
 0.898487E-013
 0.898238E-013
 0.897995E-013
 0.897759E-013
 0.897530E-013
 0.897309E-013
 0.897096E-013
 0.896891E-013
 0.896695E-013
 0.896508E-013
 0.896329E-013
 0.896160E-013
 0.896001E-013
 0.895852E-013
 0.895714E-013
 0.895585E-013
 0.895468E-013
 0.895362E-013
 0.895267E-013
 0.895184E-013
 0.895112E-013
 0.895052E-013
 0.895003E-013
 0.894967E-013
 0.894943E-013
 0.894931E-013
 0.894931E-013
 0.894943E-013
 0.894967E-013
 0.895004E-013
 0.895052E-013
 0.895112E-013
 0.895184E-013
 0.895267E-013
 0.895362E-013
 0.895469E-013
 0.895586E-013
 0.895714E-013
 0.895853E-013
 0.896002E-013
 0.896161E-013
 0.896330E-013
 0.896508E-013
 0.896696E-013
 0.896892E-013
 0.897097E-013
 0.897310E-013
 0.897531E-013
 0.897760E-013
 0.897996E-013
 0.898239E-013
 0.898488E-013
 0.898743E-013
 0.899005E-013
 0.899272E-013
 0.899544E-013
 0.899821E-013
 0.900103E-013
 0.900390E-013
 0.900680E-013
 0.900975E-013
 0.901273E-013
 0.901574E-013
 0.901879E-013
 0.902186E-013
 0.902497E-013
 0.902809E-013
 0.903125E-013
 0.903442E-013
 0.903762E-013
 0.904083E-013
 0.904406E-013
 0.904731E-013
 0.905057E-013
 0.905385E-013
 0.905714E-013
 0.906044E-013
 0.906376E-013
 0.906709E-013
 0.907043E-013
 0.907377E-013
 0.907713E-013
 0.908050E-013
 0.908388E-013
 0.908726E-013
 0.909070E-013
 0.909376E-013
 0.909931E-013
 0.909251E-013
 0.913173E-013
 0.914887E-013
 0.909931E-013
 0.911463E-013
 0.911234E-013
 0.911362E-013
 0.911432E-013
 0.911510E-013
 0.911587E-013
 0.911663E-013
 0.911740E-013
 0.911816E-013
 0.911892E-013
 0.911967E-013
 0.912043E-013
 0.912118E-013
 0.912192E-013
 0.912267E-013
 0.912341E-013
 0.912415E-013
 0.912488E-013
 0.912561E-013
 0.912633E-013
 0.912705E-013
 0.912777E-013
 0.912848E-013
 0.912918E-013
 0.912988E-013
 0.913057E-013
 0.913125E-013
 0.913193E-013
 0.913260E-013
 0.913326E-013
 0.913391E-013
 0.913454E-013
 0.913517E-013
 0.913579E-013
 0.913640E-013
 0.913699E-013
 0.913757E-013
 0.913813E-013
 0.913868E-013
 0.913922E-013
 0.913974E-013
 0.914024E-013
 0.914072E-013
 0.914118E-013
 0.914163E-013
 0.914206E-013
 0.914246E-013
 0.914284E-013
 0.914320E-013
 0.914354E-013
 0.914386E-013
 0.914415E-013
 0.914441E-013
 0.914465E-013
 0.914487E-013
 0.914506E-013
 0.914522E-013
 0.914536E-013
 0.914547E-013
 0.914555E-013
 0.914561E-013
 0.914563E-013
 0.914563E-013
 0.914560E-013
 0.914555E-013
 0.914547E-013
 0.914536E-013
 0.914522E-013
 0.914506E-013
 0.914487E-013
 0.914465E-013
 0.914441E-013
 0.914415E-013
 0.914386E-013
 0.914354E-013
 0.914320E-013
 0.914284E-013
 0.914246E-013
 0.914205E-013
 0.914163E-013
 0.914118E-013
 0.914072E-013
 0.914024E-013
 0.913973E-013
 0.913922E-013
 0.913868E-013
 0.913813E-013
 0.913757E-013
 0.913699E-013
 0.913639E-013
 0.913579E-013
 0.913517E-013
 0.913454E-013
 0.913390E-013
 0.913325E-013
 0.913260E-013
 0.913193E-013
 0.913125E-013
 0.913057E-013
 0.912988E-013
 0.912918E-013
 0.912848E-013
 0.912777E-013
 0.912705E-013
 0.912633E-013
 0.912561E-013
 0.912488E-013
 0.912414E-013
 0.912341E-013
 0.912267E-013
 0.912192E-013
 0.912117E-013
 0.912042E-013
 0.911967E-013
 0.911891E-013
 0.911816E-013
 0.911740E-013
 0.911663E-013
 0.911587E-013
 0.911510E-013
 0.911432E-013
 0.911362E-013
 0.911234E-013
 0.911463E-013
 0.909931E-013
 0.914887E-013
 0.915789E-013
 0.909376E-013
 0.911234E-013
 0.910823E-013
 0.910875E-013
 0.910853E-013
 0.910840E-013
 0.910827E-013
 0.910814E-013
 0.910801E-013
 0.910787E-013
 0.910774E-013
 0.910761E-013
 0.910748E-013
 0.910735E-013
 0.910722E-013
 0.910710E-013
 0.910697E-013
 0.910684E-013
 0.910671E-013
 0.910659E-013
 0.910646E-013
 0.910634E-013
 0.910622E-013
 0.910610E-013
 0.910598E-013
 0.910586E-013
 0.910574E-013
 0.910562E-013
 0.910550E-013
 0.910539E-013
 0.910528E-013
 0.910517E-013
 0.910506E-013
 0.910495E-013
 0.910485E-013
 0.910474E-013
 0.910464E-013
 0.910455E-013
 0.910445E-013
 0.910436E-013
 0.910427E-013
 0.910418E-013
 0.910410E-013
 0.910401E-013
 0.910394E-013
 0.910386E-013
 0.910379E-013
 0.910372E-013
 0.910366E-013
 0.910360E-013
 0.910354E-013
 0.910349E-013
 0.910344E-013
 0.910340E-013
 0.910336E-013
 0.910332E-013
 0.910329E-013
 0.910326E-013
 0.910324E-013
 0.910322E-013
 0.910321E-013
 0.910320E-013
 0.910319E-013
 0.910319E-013
 0.910320E-013
 0.910321E-013
 0.910322E-013
 0.910324E-013
 0.910326E-013
 0.910329E-013
 0.910332E-013
 0.910336E-013
 0.910340E-013
 0.910344E-013
 0.910349E-013
 0.910354E-013
 0.910360E-013
 0.910366E-013
 0.910372E-013
 0.910379E-013
 0.910386E-013
 0.910394E-013
 0.910401E-013
 0.910410E-013
 0.910418E-013
 0.910427E-013
 0.910436E-013
 0.910445E-013
 0.910455E-013
 0.910464E-013
 0.910474E-013
 0.910485E-013
 0.910495E-013
 0.910506E-013
 0.910517E-013
 0.910528E-013
 0.910539E-013
 0.910551E-013
 0.910562E-013
 0.910574E-013
 0.910586E-013
 0.910598E-013
 0.910610E-013
 0.910622E-013
 0.910634E-013
 0.910646E-013
 0.910659E-013
 0.910672E-013
 0.910684E-013
 0.910697E-013
 0.910710E-013
 0.910722E-013
 0.910735E-013
 0.910748E-013
 0.910761E-013
 0.910774E-013
 0.910787E-013
 0.910801E-013
 0.910814E-013
 0.910827E-013
 0.910840E-013
 0.910853E-013
 0.910875E-013
 0.910823E-013
 0.911234E-013
 0.909376E-013
 0.915789E-013
 0.916843E-013
 0.909070E-013
 0.911362E-013
 0.910875E-013
 0.910958E-013
 0.910949E-013
 0.910952E-013
 0.910954E-013
 0.910955E-013
 0.910957E-013
 0.910959E-013
 0.910961E-013
 0.910963E-013
 0.910965E-013
 0.910966E-013
 0.910968E-013
 0.910970E-013
 0.910972E-013
 0.910974E-013
 0.910975E-013
 0.910977E-013
 0.910979E-013
 0.910981E-013
 0.910982E-013
 0.910984E-013
 0.910986E-013
 0.910988E-013
 0.910989E-013
 0.910991E-013
 0.910993E-013
 0.910994E-013
 0.910996E-013
 0.910998E-013
 0.910999E-013
 0.911001E-013
 0.911003E-013
 0.911004E-013
 0.911006E-013
 0.911007E-013
 0.911009E-013
 0.911010E-013
 0.911012E-013
 0.911013E-013
 0.911014E-013
 0.911016E-013
 0.911017E-013
 0.911018E-013
 0.911020E-013
 0.911021E-013
 0.911022E-013
 0.911023E-013
 0.911024E-013
 0.911025E-013
 0.911026E-013
 0.911026E-013
 0.911027E-013
 0.911028E-013
 0.911028E-013
 0.911029E-013
 0.911029E-013
 0.911029E-013
 0.911030E-013
 0.911030E-013
 0.911030E-013
 0.911030E-013
 0.911030E-013
 0.911030E-013
 0.911029E-013
 0.911029E-013
 0.911029E-013
 0.911028E-013
 0.911028E-013
 0.911027E-013
 0.911026E-013
 0.911026E-013
 0.911025E-013
 0.911024E-013
 0.911023E-013
 0.911022E-013
 0.911021E-013
 0.911020E-013
 0.911018E-013
 0.911017E-013
 0.911016E-013
 0.911014E-013
 0.911013E-013
 0.911012E-013
 0.911010E-013
 0.911009E-013
 0.911007E-013
 0.911006E-013
 0.911004E-013
 0.911003E-013
 0.911001E-013
 0.910999E-013
 0.910998E-013
 0.910996E-013
 0.910994E-013
 0.910993E-013
 0.910991E-013
 0.910989E-013
 0.910988E-013
 0.910986E-013
 0.910984E-013
 0.910982E-013
 0.910981E-013
 0.910979E-013
 0.910977E-013
 0.910975E-013
 0.910974E-013
 0.910972E-013
 0.910970E-013
 0.910968E-013
 0.910966E-013
 0.910965E-013
 0.910963E-013
 0.910961E-013
 0.910959E-013
 0.910957E-013
 0.910956E-013
 0.910954E-013
 0.910952E-013
 0.910949E-013
 0.910958E-013
 0.910875E-013
 0.911362E-013
 0.909071E-013
 0.916842E-013
 0.917871E-013
 0.908726E-013
 0.911432E-013
 0.910853E-013
 0.910949E-013
 0.910936E-013
 0.910937E-013
 0.910936E-013
 0.910936E-013
 0.910936E-013
 0.910936E-013
 0.910936E-013
 0.910935E-013
 0.910935E-013
 0.910935E-013
 0.910935E-013
 0.910935E-013
 0.910934E-013
 0.910934E-013
 0.910934E-013
 0.910934E-013
 0.910934E-013
 0.910933E-013
 0.910933E-013
 0.910933E-013
 0.910933E-013
 0.910933E-013
 0.910933E-013
 0.910933E-013
 0.910933E-013
 0.910933E-013
 0.910932E-013
 0.910932E-013
 0.910932E-013
 0.910932E-013
 0.910932E-013
 0.910932E-013
 0.910932E-013
 0.910932E-013
 0.910932E-013
 0.910932E-013
 0.910932E-013
 0.910933E-013
 0.910933E-013
 0.910933E-013
 0.910933E-013
 0.910933E-013
 0.910933E-013
 0.910933E-013
 0.910933E-013
 0.910933E-013
 0.910933E-013
 0.910934E-013
 0.910934E-013
 0.910934E-013
 0.910934E-013
 0.910934E-013
 0.910934E-013
 0.910934E-013
 0.910934E-013
 0.910934E-013
 0.910934E-013
 0.910934E-013
 0.910934E-013
 0.910934E-013
 0.910934E-013
 0.910934E-013
 0.910934E-013
 0.910934E-013
 0.910934E-013
 0.910934E-013
 0.910934E-013
 0.910934E-013
 0.910934E-013
 0.910934E-013
 0.910934E-013
 0.910933E-013
 0.910933E-013
 0.910933E-013
 0.910933E-013
 0.910933E-013
 0.910933E-013
 0.910933E-013
 0.910933E-013
 0.910933E-013
 0.910933E-013
 0.910933E-013
 0.910932E-013
 0.910932E-013
 0.910932E-013
 0.910932E-013
 0.910932E-013
 0.910932E-013
 0.910932E-013
 0.910932E-013
 0.910932E-013
 0.910933E-013
 0.910933E-013
 0.910933E-013
 0.910933E-013
 0.910933E-013
 0.910933E-013
 0.910933E-013
 0.910933E-013
 0.910933E-013
 0.910934E-013
 0.910934E-013
 0.910934E-013
 0.910934E-013
 0.910934E-013
 0.910934E-013
 0.910935E-013
 0.910935E-013
 0.910935E-013
 0.910935E-013
 0.910935E-013
 0.910936E-013
 0.910936E-013
 0.910936E-013
 0.910936E-013
 0.910936E-013
 0.910937E-013
 0.910936E-013
 0.910949E-013
 0.910853E-013
 0.911432E-013
 0.908726E-013
 0.917870E-013
 0.918900E-013
 0.908387E-013
 0.911510E-013
 0.910840E-013
 0.910952E-013
 0.910937E-013
 0.910939E-013
 0.910938E-013
 0.910938E-013
 0.910938E-013
 0.910938E-013
 0.910938E-013
 0.910938E-013
 0.910939E-013
 0.910939E-013
 0.910939E-013
 0.910939E-013
 0.910939E-013
 0.910939E-013
 0.910939E-013
 0.910939E-013
 0.910939E-013
 0.910939E-013
 0.910939E-013
 0.910939E-013
 0.910939E-013
 0.910939E-013
 0.910939E-013
 0.910940E-013
 0.910940E-013
 0.910940E-013
 0.910940E-013
 0.910940E-013
 0.910940E-013
 0.910941E-013
 0.910941E-013
 0.910941E-013
 0.910941E-013
 0.910941E-013
 0.910942E-013
 0.910942E-013
 0.910942E-013
 0.910942E-013
 0.910943E-013
 0.910943E-013
 0.910943E-013
 0.910944E-013
 0.910944E-013
 0.910944E-013
 0.910944E-013
 0.910945E-013
 0.910945E-013
 0.910945E-013
 0.910945E-013
 0.910946E-013
 0.910946E-013
 0.910946E-013
 0.910946E-013
 0.910946E-013
 0.910946E-013
 0.910947E-013
 0.910947E-013
 0.910947E-013
 0.910947E-013
 0.910947E-013
 0.910947E-013
 0.910947E-013
 0.910947E-013
 0.910946E-013
 0.910946E-013
 0.910946E-013
 0.910946E-013
 0.910946E-013
 0.910946E-013
 0.910945E-013
 0.910945E-013
 0.910945E-013
 0.910945E-013
 0.910944E-013
 0.910944E-013
 0.910944E-013
 0.910944E-013
 0.910943E-013
 0.910943E-013
 0.910943E-013
 0.910943E-013
 0.910942E-013
 0.910942E-013
 0.910942E-013
 0.910941E-013
 0.910941E-013
 0.910941E-013
 0.910941E-013
 0.910941E-013
 0.910940E-013
 0.910940E-013
 0.910940E-013
 0.910940E-013
 0.910940E-013
 0.910940E-013
 0.910939E-013
 0.910939E-013
 0.910939E-013
 0.910939E-013
 0.910939E-013
 0.910939E-013
 0.910939E-013
 0.910939E-013
 0.910939E-013
 0.910939E-013
 0.910939E-013
 0.910939E-013
 0.910939E-013
 0.910939E-013
 0.910939E-013
 0.910939E-013
 0.910939E-013
 0.910939E-013
 0.910939E-013
 0.910938E-013
 0.910938E-013
 0.910939E-013
 0.910937E-013
 0.910952E-013
 0.910840E-013
 0.911510E-013
 0.908388E-013
 0.918899E-013
 0.919926E-013
 0.908050E-013
 0.911587E-013
 0.910827E-013
 0.910954E-013
 0.910936E-013
 0.910938E-013
 0.910938E-013
 0.910938E-013
 0.910938E-013
 0.910938E-013
 0.910938E-013
 0.910938E-013
 0.910938E-013
 0.910938E-013
 0.910938E-013
 0.910938E-013
 0.910938E-013
 0.910938E-013
 0.910938E-013
 0.910938E-013
 0.910938E-013
 0.910938E-013
 0.910939E-013
 0.910939E-013
 0.910939E-013
 0.910939E-013
 0.910939E-013
 0.910939E-013
 0.910939E-013
 0.910939E-013
 0.910940E-013
 0.910940E-013
 0.910940E-013
 0.910940E-013
 0.910940E-013
 0.910941E-013
 0.910941E-013
 0.910941E-013
 0.910941E-013
 0.910942E-013
 0.910942E-013
 0.910942E-013
 0.910943E-013
 0.910943E-013
 0.910943E-013
 0.910943E-013
 0.910944E-013
 0.910944E-013
 0.910944E-013
 0.910945E-013
 0.910945E-013
 0.910945E-013
 0.910946E-013
 0.910946E-013
 0.910946E-013
 0.910946E-013
 0.910946E-013
 0.910947E-013
 0.910947E-013
 0.910947E-013
 0.910947E-013
 0.910947E-013
 0.910947E-013
 0.910947E-013
 0.910947E-013
 0.910947E-013
 0.910947E-013
 0.910947E-013
 0.910947E-013
 0.910946E-013
 0.910946E-013
 0.910946E-013
 0.910946E-013
 0.910946E-013
 0.910945E-013
 0.910945E-013
 0.910945E-013
 0.910944E-013
 0.910944E-013
 0.910944E-013
 0.910944E-013
 0.910943E-013
 0.910943E-013
 0.910943E-013
 0.910942E-013
 0.910942E-013
 0.910942E-013
 0.910941E-013
 0.910941E-013
 0.910941E-013
 0.910941E-013
 0.910940E-013
 0.910940E-013
 0.910940E-013
 0.910940E-013
 0.910940E-013
 0.910939E-013
 0.910939E-013
 0.910939E-013
 0.910939E-013
 0.910939E-013
 0.910939E-013
 0.910939E-013
 0.910939E-013
 0.910939E-013
 0.910938E-013
 0.910938E-013
 0.910938E-013
 0.910938E-013
 0.910938E-013
 0.910938E-013
 0.910938E-013
 0.910938E-013
 0.910938E-013
 0.910938E-013
 0.910938E-013
 0.910938E-013
 0.910938E-013
 0.910938E-013
 0.910938E-013
 0.910938E-013
 0.910937E-013
 0.910954E-013
 0.910827E-013
 0.911587E-013
 0.908050E-013
 0.919925E-013
 0.920950E-013
 0.907713E-013
 0.911663E-013
 0.910814E-013
 0.910955E-013
 0.910936E-013
 0.910938E-013
 0.910938E-013
 0.910938E-013
 0.910938E-013
 0.910938E-013
 0.910938E-013
 0.910938E-013
 0.910938E-013
 0.910938E-013
 0.910938E-013
 0.910938E-013
 0.910938E-013
 0.910938E-013
 0.910938E-013
 0.910938E-013
 0.910939E-013
 0.910939E-013
 0.910939E-013
 0.910939E-013
 0.910939E-013
 0.910939E-013
 0.910939E-013
 0.910939E-013
 0.910939E-013
 0.910940E-013
 0.910940E-013
 0.910940E-013
 0.910940E-013
 0.910941E-013
 0.910941E-013
 0.910941E-013
 0.910941E-013
 0.910942E-013
 0.910942E-013
 0.910942E-013
 0.910943E-013
 0.910943E-013
 0.910943E-013
 0.910944E-013
 0.910944E-013
 0.910945E-013
 0.910945E-013
 0.910945E-013
 0.910946E-013
 0.910946E-013
 0.910946E-013
 0.910947E-013
 0.910947E-013
 0.910947E-013
 0.910948E-013
 0.910948E-013
 0.910948E-013
 0.910948E-013
 0.910949E-013
 0.910949E-013
 0.910949E-013
 0.910949E-013
 0.910949E-013
 0.910949E-013
 0.910949E-013
 0.910949E-013
 0.910949E-013
 0.910949E-013
 0.910948E-013
 0.910948E-013
 0.910948E-013
 0.910948E-013
 0.910947E-013
 0.910947E-013
 0.910947E-013
 0.910946E-013
 0.910946E-013
 0.910946E-013
 0.910945E-013
 0.910945E-013
 0.910945E-013
 0.910944E-013
 0.910944E-013
 0.910944E-013
 0.910943E-013
 0.910943E-013
 0.910942E-013
 0.910942E-013
 0.910942E-013
 0.910941E-013
 0.910941E-013
 0.910941E-013
 0.910941E-013
 0.910940E-013
 0.910940E-013
 0.910940E-013
 0.910940E-013
 0.910940E-013
 0.910939E-013
 0.910939E-013
 0.910939E-013
 0.910939E-013
 0.910939E-013
 0.910939E-013
 0.910939E-013
 0.910939E-013
 0.910939E-013
 0.910938E-013
 0.910938E-013
 0.910938E-013
 0.910938E-013
 0.910938E-013
 0.910938E-013
 0.910938E-013
 0.910938E-013
 0.910938E-013
 0.910938E-013
 0.910938E-013
 0.910938E-013
 0.910938E-013
 0.910939E-013
 0.910936E-013
 0.910956E-013
 0.910814E-013
 0.911663E-013
 0.907714E-013
 0.920948E-013
 0.921971E-013
 0.907377E-013
 0.911740E-013
 0.910801E-013
 0.910957E-013
 0.910936E-013
 0.910938E-013
 0.910938E-013
 0.910938E-013
 0.910938E-013
 0.910938E-013
 0.910938E-013
 0.910938E-013
 0.910938E-013
 0.910938E-013
 0.910938E-013
 0.910938E-013
 0.910938E-013
 0.910938E-013
 0.910938E-013
 0.910939E-013
 0.910939E-013
 0.910939E-013
 0.910939E-013
 0.910939E-013
 0.910939E-013
 0.910939E-013
 0.910939E-013
 0.910940E-013
 0.910940E-013
 0.910940E-013
 0.910940E-013
 0.910940E-013
 0.910941E-013
 0.910941E-013
 0.910941E-013
 0.910942E-013
 0.910942E-013
 0.910942E-013
 0.910943E-013
 0.910943E-013
 0.910944E-013
 0.910944E-013
 0.910944E-013
 0.910945E-013
 0.910945E-013
 0.910946E-013
 0.910946E-013
 0.910947E-013
 0.910947E-013
 0.910948E-013
 0.910948E-013
 0.910948E-013
 0.910949E-013
 0.910949E-013
 0.910949E-013
 0.910950E-013
 0.910950E-013
 0.910950E-013
 0.910950E-013
 0.910951E-013
 0.910951E-013
 0.910951E-013
 0.910951E-013
 0.910951E-013
 0.910951E-013
 0.910951E-013
 0.910951E-013
 0.910951E-013
 0.910950E-013
 0.910950E-013
 0.910950E-013
 0.910950E-013
 0.910949E-013
 0.910949E-013
 0.910948E-013
 0.910948E-013
 0.910948E-013
 0.910947E-013
 0.910947E-013
 0.910946E-013
 0.910946E-013
 0.910945E-013
 0.910945E-013
 0.910945E-013
 0.910944E-013
 0.910944E-013
 0.910943E-013
 0.910943E-013
 0.910943E-013
 0.910942E-013
 0.910942E-013
 0.910941E-013
 0.910941E-013
 0.910941E-013
 0.910941E-013
 0.910940E-013
 0.910940E-013
 0.910940E-013
 0.910940E-013
 0.910939E-013
 0.910939E-013
 0.910939E-013
 0.910939E-013
 0.910939E-013
 0.910939E-013
 0.910939E-013
 0.910939E-013
 0.910939E-013
 0.910938E-013
 0.910938E-013
 0.910938E-013
 0.910938E-013
 0.910938E-013
 0.910938E-013
 0.910938E-013
 0.910938E-013
 0.910938E-013
 0.910938E-013
 0.910938E-013
 0.910938E-013
 0.910939E-013
 0.910936E-013
 0.910957E-013
 0.910801E-013
 0.911740E-013
 0.907378E-013
 0.921970E-013
 0.922990E-013
 0.907042E-013
 0.911816E-013
 0.910787E-013
 0.910959E-013
 0.910936E-013
 0.910938E-013
 0.910938E-013
 0.910938E-013
 0.910938E-013
 0.910938E-013
 0.910938E-013
 0.910938E-013
 0.910938E-013
 0.910938E-013
 0.910938E-013
 0.910938E-013
 0.910938E-013
 0.910938E-013
 0.910939E-013
 0.910939E-013
 0.910939E-013
 0.910939E-013
 0.910939E-013
 0.910939E-013
 0.910939E-013
 0.910939E-013
 0.910940E-013
 0.910940E-013
 0.910940E-013
 0.910940E-013
 0.910941E-013
 0.910941E-013
 0.910941E-013
 0.910942E-013
 0.910942E-013
 0.910942E-013
 0.910943E-013
 0.910943E-013
 0.910944E-013
 0.910944E-013
 0.910945E-013
 0.910945E-013
 0.910946E-013
 0.910946E-013
 0.910947E-013
 0.910947E-013
 0.910948E-013
 0.910948E-013