# vtk DataFile Version 3.0
Solution data
ASCII
DATASET STRUCTURED_GRID
DIMENSIONS 128 128 1
POINTS 16384  double
      0.000004      0.000004      0.000000
      0.000012      0.000004      0.000000
      0.000020      0.000004      0.000000
      0.000027      0.000004      0.000000
      0.000035      0.000004      0.000000
      0.000043      0.000004      0.000000
      0.000051      0.000004      0.000000
      0.000059      0.000004      0.000000
      0.000066      0.000004      0.000000
      0.000074      0.000004      0.000000
      0.000082      0.000004      0.000000
      0.000090      0.000004      0.000000
      0.000098      0.000004      0.000000
      0.000105      0.000004      0.000000
      0.000113      0.000004      0.000000
      0.000121      0.000004      0.000000
      0.000129      0.000004      0.000000
      0.000137      0.000004      0.000000
      0.000145      0.000004      0.000000
      0.000152      0.000004      0.000000
      0.000160      0.000004      0.000000
      0.000168      0.000004      0.000000
      0.000176      0.000004      0.000000
      0.000184      0.000004      0.000000
      0.000191      0.000004      0.000000
      0.000199      0.000004      0.000000
      0.000207      0.000004      0.000000
      0.000215      0.000004      0.000000
      0.000223      0.000004      0.000000
      0.000230      0.000004      0.000000
      0.000238      0.000004      0.000000
      0.000246      0.000004      0.000000
      0.000254      0.000004      0.000000
      0.000262      0.000004      0.000000
      0.000270      0.000004      0.000000
      0.000277      0.000004      0.000000
      0.000285      0.000004      0.000000
      0.000293      0.000004      0.000000
      0.000301      0.000004      0.000000
      0.000309      0.000004      0.000000
      0.000316      0.000004      0.000000
      0.000324      0.000004      0.000000
      0.000332      0.000004      0.000000
      0.000340      0.000004      0.000000
      0.000348      0.000004      0.000000
      0.000355      0.000004      0.000000
      0.000363      0.000004      0.000000
      0.000371      0.000004      0.000000
      0.000379      0.000004      0.000000
      0.000387      0.000004      0.000000
      0.000395      0.000004      0.000000
      0.000402      0.000004      0.000000
      0.000410      0.000004      0.000000
      0.000418      0.000004      0.000000
      0.000426      0.000004      0.000000
      0.000434      0.000004      0.000000
      0.000441      0.000004      0.000000
      0.000449      0.000004      0.000000
      0.000457      0.000004      0.000000
      0.000465      0.000004      0.000000
      0.000473      0.000004      0.000000
      0.000480      0.000004      0.000000
      0.000488      0.000004      0.000000
      0.000496      0.000004      0.000000
      0.000504      0.000004      0.000000
      0.000512      0.000004      0.000000
      0.000520      0.000004      0.000000
      0.000527      0.000004      0.000000
      0.000535      0.000004      0.000000
      0.000543      0.000004      0.000000
      0.000551      0.000004      0.000000
      0.000559      0.000004      0.000000
      0.000566      0.000004      0.000000
      0.000574      0.000004      0.000000
      0.000582      0.000004      0.000000
      0.000590      0.000004      0.000000
      0.000598      0.000004      0.000000
      0.000605      0.000004      0.000000
      0.000613      0.000004      0.000000
      0.000621      0.000004      0.000000
      0.000629      0.000004      0.000000
      0.000637      0.000004      0.000000
      0.000645      0.000004      0.000000
      0.000652      0.000004      0.000000
      0.000660      0.000004      0.000000
      0.000668      0.000004      0.000000
      0.000676      0.000004      0.000000
      0.000684      0.000004      0.000000
      0.000691      0.000004      0.000000
      0.000699      0.000004      0.000000
      0.000707      0.000004      0.000000
      0.000715      0.000004      0.000000
      0.000723      0.000004      0.000000
      0.000730      0.000004      0.000000
      0.000738      0.000004      0.000000
      0.000746      0.000004      0.000000
      0.000754      0.000004      0.000000
      0.000762      0.000004      0.000000
      0.000770      0.000004      0.000000
      0.000777      0.000004      0.000000
      0.000785      0.000004      0.000000
      0.000793      0.000004      0.000000
      0.000801      0.000004      0.000000
      0.000809      0.000004      0.000000
      0.000816      0.000004      0.000000
      0.000824      0.000004      0.000000
      0.000832      0.000004      0.000000
      0.000840      0.000004      0.000000
      0.000848      0.000004      0.000000
      0.000855      0.000004      0.000000
      0.000863      0.000004      0.000000
      0.000871      0.000004      0.000000
      0.000879      0.000004      0.000000
      0.000887      0.000004      0.000000
      0.000895      0.000004      0.000000
      0.000902      0.000004      0.000000
      0.000910      0.000004      0.000000
      0.000918      0.000004      0.000000
      0.000926      0.000004      0.000000
      0.000934      0.000004      0.000000
      0.000941      0.000004      0.000000
      0.000949      0.000004      0.000000
      0.000957      0.000004      0.000000
      0.000965      0.000004      0.000000
      0.000973      0.000004      0.000000
      0.000980      0.000004      0.000000
      0.000988      0.000004      0.000000
      0.000996      0.000004      0.000000
      0.000004      0.000012      0.000000
      0.000012      0.000012      0.000000
      0.000020      0.000012      0.000000
      0.000027      0.000012      0.000000
      0.000035      0.000012      0.000000
      0.000043      0.000012      0.000000
      0.000051      0.000012      0.000000
      0.000059      0.000012      0.000000
      0.000066      0.000012      0.000000
      0.000074      0.000012      0.000000
      0.000082      0.000012      0.000000
      0.000090      0.000012      0.000000
      0.000098      0.000012      0.000000
      0.000105      0.000012      0.000000
      0.000113      0.000012      0.000000
      0.000121      0.000012      0.000000
      0.000129      0.000012      0.000000
      0.000137      0.000012      0.000000
      0.000145      0.000012      0.000000
      0.000152      0.000012      0.000000
      0.000160      0.000012      0.000000
      0.000168      0.000012      0.000000
      0.000176      0.000012      0.000000
      0.000184      0.000012      0.000000
      0.000191      0.000012      0.000000
      0.000199      0.000012      0.000000
      0.000207      0.000012      0.000000
      0.000215      0.000012      0.000000
      0.000223      0.000012      0.000000
      0.000230      0.000012      0.000000
      0.000238      0.000012      0.000000
      0.000246      0.000012      0.000000
      0.000254      0.000012      0.000000
      0.000262      0.000012      0.000000
      0.000270      0.000012      0.000000
      0.000277      0.000012      0.000000
      0.000285      0.000012      0.000000
      0.000293      0.000012      0.000000
      0.000301      0.000012      0.000000
      0.000309      0.000012      0.000000
      0.000316      0.000012      0.000000
      0.000324      0.000012      0.000000
      0.000332      0.000012      0.000000
      0.000340      0.000012      0.000000
      0.000348      0.000012      0.000000
      0.000355      0.000012      0.000000
      0.000363      0.000012      0.000000
      0.000371      0.000012      0.000000
      0.000379      0.000012      0.000000
      0.000387      0.000012      0.000000
      0.000395      0.000012      0.000000
      0.000402      0.000012      0.000000
      0.000410      0.000012      0.000000
      0.000418      0.000012      0.000000
      0.000426      0.000012      0.000000
      0.000434      0.000012      0.000000
      0.000441      0.000012      0.000000
      0.000449      0.000012      0.000000
      0.000457      0.000012      0.000000
      0.000465      0.000012      0.000000
      0.000473      0.000012      0.000000
      0.000480      0.000012      0.000000
      0.000488      0.000012      0.000000
      0.000496      0.000012      0.000000
      0.000504      0.000012      0.000000
      0.000512      0.000012      0.000000
      0.000520      0.000012      0.000000
      0.000527      0.000012      0.000000
      0.000535      0.000012      0.000000
      0.000543      0.000012      0.000000
      0.000551      0.000012      0.000000
      0.000559      0.000012      0.000000
      0.000566      0.000012      0.000000
      0.000574      0.000012      0.000000
      0.000582      0.000012      0.000000
      0.000590      0.000012      0.000000
      0.000598      0.000012      0.000000
      0.000605      0.000012      0.000000
      0.000613      0.000012      0.000000
      0.000621      0.000012      0.000000
      0.000629      0.000012      0.000000
      0.000637      0.000012      0.000000
      0.000645      0.000012      0.000000
      0.000652      0.000012      0.000000
      0.000660      0.000012      0.000000
      0.000668      0.000012      0.000000
      0.000676      0.000012      0.000000
      0.000684      0.000012      0.000000
      0.000691      0.000012      0.000000
      0.000699      0.000012      0.000000
      0.000707      0.000012      0.000000
      0.000715      0.000012      0.000000
      0.000723      0.000012      0.000000
      0.000730      0.000012      0.000000
      0.000738      0.000012      0.000000
      0.000746      0.000012      0.000000
      0.000754      0.000012      0.000000
      0.000762      0.000012      0.000000
      0.000770      0.000012      0.000000
      0.000777      0.000012      0.000000
      0.000785      0.000012      0.000000
[...]
POINT_DATA 16384
SCALARS rhoe double
LOOKUP_TABLE default
 0.916258E-013
 0.912571E-013
 0.915389E-013
 0.915612E-013
 0.916705E-013
 0.917545E-013
 0.918445E-013
 0.919330E-013
 0.920214E-013
 0.921095E-013
 0.921974E-013
 0.922850E-013
 0.923722E-013
 0.924592E-013
 0.925458E-013
 0.926321E-013
 0.927180E-013
 0.928035E-013
 0.928885E-013
 0.929731E-013
 0.930572E-013
 0.931408E-013
 0.932239E-013
 0.933063E-013
 0.933880E-013
 0.934691E-013
 0.935494E-013
 0.936289E-013
 0.937076E-013
 0.937854E-013
 0.938621E-013
 0.939379E-013
 0.940125E-013
 0.940859E-013
 0.941581E-013
 0.942290E-013
 0.942984E-013
 0.943664E-013
 0.944328E-013
 0.944975E-013
 0.945606E-013
 0.946218E-013
 0.946811E-013
 0.947384E-013
 0.947937E-013
 0.948468E-013
 0.948977E-013
 0.949463E-013
 0.949925E-013
 0.950362E-013
 0.950774E-013
 0.951160E-013
 0.951519E-013
 0.951850E-013
 0.952154E-013
 0.952428E-013
 0.952674E-013
 0.952890E-013
 0.953076E-013
 0.953231E-013
 0.953356E-013
 0.953449E-013
 0.953512E-013
 0.953543E-013
 0.953543E-013
 0.953512E-013
 0.953450E-013
 0.953356E-013
 0.953231E-013
 0.953076E-013
 0.952890E-013
 0.952674E-013
 0.952428E-013
 0.952154E-013
 0.951850E-013
 0.951519E-013
 0.951160E-013
 0.950774E-013
 0.950363E-013
 0.949925E-013
 0.949463E-013
 0.948978E-013
 0.948469E-013
 0.947937E-013
 0.947385E-013
 0.946811E-013
 0.946218E-013
 0.945606E-013
 0.944976E-013
 0.944328E-013
 0.943664E-013
 0.942984E-013
 0.942290E-013
 0.941581E-013
 0.940859E-013
 0.940125E-013
 0.939379E-013
 0.938622E-013
 0.937854E-013
 0.937076E-013
 0.936290E-013
 0.935495E-013
 0.934691E-013
 0.933881E-013
 0.933063E-013
 0.932239E-013
 0.931409E-013
 0.930573E-013
 0.929731E-013
 0.928885E-013
 0.928035E-013
 0.927180E-013
 0.926321E-013
 0.925458E-013
 0.924592E-013
 0.923722E-013
 0.922850E-013
 0.921974E-013
 0.921095E-013
 0.920214E-013
 0.919330E-013
 0.918445E-013
 0.917545E-013
 0.916705E-013
 0.915612E-013
 0.915389E-013
 0.912571E-013
 0.916258E-013
 0.912571E-013
 0.907883E-013
 0.909452E-013
 0.908097E-013
 0.907839E-013
 0.907243E-013
 0.906737E-013
 0.906213E-013
 0.905694E-013
 0.905176E-013
 0.904660E-013
 0.904145E-013
 0.903632E-013
 0.903121E-013
 0.902612E-013
 0.902105E-013
 0.901601E-013
 0.901098E-013
 0.900598E-013
 0.900101E-013
 0.899607E-013
 0.899116E-013
 0.898628E-013
 0.898143E-013
 0.897663E-013
 0.897186E-013
 0.896714E-013
 0.896246E-013
 0.895784E-013
 0.895327E-013
 0.894875E-013
 0.894430E-013
 0.893991E-013
 0.893559E-013
 0.893134E-013
 0.892717E-013
 0.892308E-013
 0.891908E-013
 0.891518E-013
 0.891136E-013
 0.890765E-013
 0.890405E-013
 0.890056E-013
 0.889718E-013
 0.889393E-013
 0.889080E-013
 0.888780E-013
 0.888494E-013
 0.888222E-013
 0.887964E-013
 0.887721E-013
 0.887494E-013
 0.887283E-013
 0.887087E-013
 0.886908E-013
 0.886747E-013
 0.886602E-013
 0.886475E-013
 0.886365E-013
 0.886274E-013
 0.886200E-013
 0.886145E-013
 0.886108E-013
 0.886089E-013
 0.886089E-013
 0.886108E-013
 0.886145E-013
 0.886200E-013
 0.886274E-013
 0.886365E-013
 0.886475E-013
 0.886602E-013
 0.886747E-013
 0.886909E-013
 0.887087E-013
 0.887283E-013
 0.887494E-013
 0.887722E-013
 0.887964E-013
 0.888222E-013
 0.888494E-013
 0.888780E-013
 0.889080E-013
 0.889393E-013
 0.889718E-013
 0.890056E-013
 0.890405E-013
 0.890766E-013
 0.891137E-013
 0.891518E-013
 0.891909E-013
 0.892309E-013
 0.892718E-013
 0.893135E-013
 0.893559E-013
 0.893991E-013
 0.894430E-013
 0.894876E-013
 0.895327E-013
 0.895784E-013
 0.896247E-013
 0.896714E-013
 0.897187E-013
 0.897663E-013
 0.898144E-013
 0.898628E-013
 0.899116E-013
 0.899607E-013
 0.900102E-013
 0.900599E-013
 0.901099E-013
 0.901601E-013
 0.902106E-013
 0.902613E-013
 0.903122E-013
 0.903632E-013
 0.904145E-013
 0.904660E-013
 0.905176E-013
 0.905694E-013
 0.906213E-013
 0.906738E-013
 0.907243E-013
 0.907840E-013
 0.908097E-013
 0.909452E-013
 0.907883E-013
 0.912571E-013
 0.915389E-013
 0.909452E-013
 0.912702E-013
 0.911752E-013
 0.912366E-013
 0.912493E-013
 0.912749E-013
 0.912974E-013
 0.913205E-013
 0.913434E-013
 0.913662E-013
 0.913889E-013
 0.914116E-013
 0.914342E-013
 0.914566E-013
 0.914790E-013
 0.915013E-013
 0.915235E-013
 0.915456E-013
 0.915675E-013
 0.915893E-013
 0.916110E-013
 0.916325E-013
 0.916539E-013
 0.916751E-013
 0.916962E-013
 0.917170E-013
 0.917376E-013
 0.917580E-013
 0.917782E-013
 0.917981E-013
 0.918177E-013
 0.918371E-013
 0.918562E-013
 0.918749E-013
 0.918933E-013
 0.919113E-013
 0.919289E-013
 0.919462E-013
 0.919630E-013
 0.919793E-013
 0.919952E-013
 0.920106E-013
 0.920255E-013
 0.920398E-013
 0.920536E-013
 0.920669E-013
 0.920795E-013
 0.920915E-013
 0.921028E-013
 0.921135E-013
 0.921235E-013
 0.921328E-013
 0.921415E-013
 0.921493E-013
 0.921565E-013
 0.921628E-013
 0.921685E-013
 0.921733E-013
 0.921773E-013
 0.921806E-013
 0.921830E-013
 0.921846E-013
 0.921854E-013
 0.921854E-013
 0.921846E-013
 0.921830E-013
 0.921805E-013
 0.921773E-013
 0.921733E-013
 0.921684E-013
 0.921628E-013
 0.921565E-013
 0.921493E-013
 0.921414E-013
 0.921328E-013
 0.921235E-013
 0.921135E-013
 0.921028E-013
 0.920914E-013
 0.920794E-013
 0.920668E-013
 0.920536E-013
 0.920398E-013
 0.920255E-013
 0.920106E-013
 0.919952E-013
 0.919793E-013
 0.919629E-013
 0.919461E-013
 0.919289E-013
 0.919113E-013
 0.918932E-013
 0.918748E-013
 0.918561E-013
 0.918371E-013
 0.918177E-013
 0.917981E-013
 0.917781E-013
 0.917580E-013
 0.917376E-013
 0.917170E-013
 0.916961E-013
 0.916751E-013
 0.916539E-013
 0.916325E-013
 0.916110E-013
 0.915893E-013
 0.915675E-013
 0.915455E-013
 0.915235E-013
 0.915013E-013
 0.914790E-013
 0.914566E-013
 0.914341E-013
 0.914116E-013
 0.913889E-013
 0.913662E-013
 0.913433E-013
 0.913205E-013
 0.912974E-013
 0.912749E-013
 0.912493E-013
 0.912366E-013
 0.911752E-013
 0.912702E-013
 0.909452E-013
 0.915389E-013
 0.915612E-013
 0.908097E-013
 0.911752E-013
 0.910182E-013
 0.910586E-013
 0.910371E-013
 0.910322E-013
 0.910234E-013
 0.910155E-013
 0.910075E-013
 0.909995E-013
 0.909915E-013
 0.909835E-013
 0.909756E-013
 0.909677E-013
 0.909599E-013
 0.909521E-013
 0.909443E-013
 0.909366E-013
 0.909289E-013
 0.909212E-013
 0.909136E-013
 0.909060E-013
 0.908985E-013
 0.908911E-013
 0.908837E-013
 0.908764E-013
 0.908692E-013
 0.908620E-013
 0.908550E-013
 0.908480E-013
 0.908411E-013
 0.908343E-013
 0.908276E-013
 0.908210E-013
 0.908146E-013
 0.908083E-013
 0.908021E-013
 0.907960E-013
 0.907902E-013
 0.907844E-013
 0.907788E-013
 0.907734E-013
 0.907682E-013
 0.907632E-013
 0.907584E-013
 0.907537E-013
 0.907493E-013
 0.907451E-013
 0.907411E-013
 0.907374E-013
 0.907339E-013
 0.907306E-013
 0.907276E-013
 0.907248E-013
 0.907223E-013
 0.907201E-013
 0.907181E-013
 0.907164E-013
 0.907150E-013
 0.907139E-013
 0.907130E-013
 0.907124E-013
 0.907122E-013
 0.907122E-013
 0.907124E-013
 0.907130E-013
 0.907139E-013
 0.907150E-013
 0.907164E-013
 0.907181E-013
 0.907201E-013
 0.907223E-013
 0.907248E-013
 0.907276E-013
 0.907306E-013
 0.907339E-013
 0.907374E-013
 0.907411E-013
 0.907451E-013
 0.907493E-013
 0.907537E-013
 0.907584E-013
 0.907632E-013
 0.907682E-013
 0.907735E-013
 0.907789E-013
 0.907844E-013
 0.907902E-013
 0.907961E-013
 0.908021E-013
 0.908083E-013
 0.908146E-013
 0.908211E-013
 0.908276E-013
 0.908343E-013
 0.908411E-013
 0.908480E-013
 0.908550E-013
 0.908620E-013
 0.908692E-013
 0.908764E-013
 0.908837E-013
 0.908911E-013
 0.908986E-013
 0.909061E-013
 0.909136E-013
 0.909212E-013
 0.909289E-013
 0.909366E-013
 0.909443E-013
 0.909521E-013
 0.909599E-013
 0.909678E-013
 0.909756E-013
 0.909836E-013
 0.909915E-013
 0.909995E-013
 0.910075E-013
 0.910155E-013
 0.910235E-013
 0.910322E-013
 0.910371E-013
 0.910586E-013
 0.910182E-013
 0.911752E-013
 0.908097E-013
 0.915612E-013
 0.916705E-013
 0.907839E-013
 0.912366E-013
 0.910586E-013
 0.911200E-013
 0.911061E-013
 0.911123E-013
 0.911138E-013
 0.911163E-013
 0.911186E-013
 0.911209E-013
 0.911232E-013
 0.911255E-013
 0.911278E-013
 0.911301E-013
 0.911324E-013
 0.911346E-013
 0.911369E-013
 0.911391E-013
 0.911414E-013
 0.911436E-013
 0.911458E-013
 0.911480E-013
 0.911501E-013
 0.911523E-013
 0.911544E-013
 0.911566E-013
 0.911587E-013
 0.911607E-013
 0.911628E-013
 0.911648E-013
 0.911668E-013
 0.911688E-013
 0.911707E-013
 0.911726E-013
 0.911745E-013
 0.911763E-013
 0.911781E-013
 0.911798E-013
 0.911816E-013
 0.911832E-013
 0.911848E-013
 0.911864E-013
 0.911879E-013
 0.911894E-013
 0.911908E-013
 0.911921E-013
 0.911934E-013
 0.911946E-013
 0.911958E-013
 0.911969E-013
 0.911979E-013
 0.911988E-013
 0.911997E-013
 0.912005E-013
 0.912012E-013
 0.912019E-013
 0.912025E-013
 0.912029E-013
 0.912034E-013
 0.912037E-013
 0.912039E-013
 0.912041E-013
 0.912042E-013
 0.912042E-013
 0.912041E-013
 0.912039E-013
 0.912037E-013
 0.912034E-013
 0.912029E-013
 0.912025E-013
 0.912019E-013
 0.912012E-013
 0.912005E-013
 0.911997E-013
 0.911988E-013
 0.911979E-013
 0.911969E-013
 0.911958E-013
 0.911946E-013
 0.911934E-013
 0.911921E-013
 0.911908E-013
 0.911894E-013
 0.911879E-013
 0.911864E-013
 0.911848E-013
 0.911832E-013
 0.911815E-013
 0.911798E-013
 0.911781E-013
 0.911763E-013
 0.911745E-013
 0.911726E-013
 0.911707E-013
 0.911688E-013
 0.911668E-013
 0.911648E-013
 0.911628E-013
 0.911607E-013
 0.911586E-013
 0.911566E-013
 0.911544E-013
 0.911523E-013
 0.911501E-013
 0.911480E-013
 0.911458E-013
 0.911436E-013
 0.911414E-013
 0.911391E-013
 0.911369E-013
 0.911346E-013
 0.911324E-013
 0.911301E-013
 0.911278E-013
 0.911255E-013
 0.911232E-013
 0.911209E-013
 0.911186E-013
 0.911163E-013
 0.911138E-013
 0.911123E-013
 0.911061E-013
 0.911200E-013
 0.910586E-013
 0.912366E-013
 0.907840E-013
 0.916705E-013
 0.917545E-013
 0.907243E-013
 0.912493E-013
 0.910371E-013
 0.911061E-013
 0.910863E-013
 0.910903E-013
 0.910888E-013
 0.910884E-013
 0.910878E-013
 0.910872E-013
 0.910866E-013
 0.910861E-013
 0.910855E-013
 0.910850E-013
 0.910844E-013
 0.910838E-013
 0.910833E-013
 0.910827E-013
 0.910822E-013
 0.910817E-013
 0.910811E-013
 0.910806E-013
 0.910800E-013
 0.910795E-013
 0.910790E-013
 0.910785E-013
 0.910780E-013
 0.910775E-013
 0.910770E-013
 0.910765E-013
 0.910760E-013
 0.910755E-013
 0.910750E-013
 0.910746E-013
 0.910741E-013
 0.910737E-013
 0.910732E-013
 0.910728E-013
 0.910724E-013
 0.910720E-013
 0.910716E-013
 0.910712E-013
 0.910708E-013
 0.910705E-013
 0.910701E-013
 0.910698E-013
 0.910695E-013
 0.910692E-013
 0.910689E-013
 0.910687E-013
 0.910684E-013
 0.910682E-013
 0.910680E-013
 0.910678E-013
 0.910676E-013
 0.910675E-013
 0.910673E-013
 0.910672E-013
 0.910671E-013
 0.910670E-013
 0.910670E-013
 0.910669E-013
 0.910669E-013
 0.910669E-013
 0.910669E-013
 0.910670E-013
 0.910670E-013
 0.910671E-013
 0.910672E-013
 0.910673E-013
 0.910675E-013
 0.910676E-013
 0.910678E-013
 0.910680E-013
 0.910682E-013
 0.910684E-013
 0.910687E-013
 0.910689E-013
 0.910692E-013
 0.910695E-013
 0.910698E-013
 0.910701E-013
 0.910705E-013
 0.910708E-013
 0.910712E-013
 0.910716E-013
 0.910720E-013
 0.910724E-013
 0.910728E-013
 0.910732E-013
 0.910737E-013
 0.910741E-013
 0.910746E-013
 0.910750E-013
 0.910755E-013
 0.910760E-013
 0.910765E-013
 0.910770E-013
 0.910775E-013
 0.910780E-013
 0.910785E-013
 0.910790E-013
 0.910795E-013
 0.910800E-013
 0.910806E-013
 0.910811E-013
 0.910817E-013
 0.910822E-013
 0.910827E-013
 0.910833E-013
 0.910838E-013
 0.910844E-013
 0.910850E-013
 0.910855E-013
 0.910861E-013
 0.910866E-013
 0.910872E-013
 0.910878E-013
 0.910884E-013
 0.910888E-013
 0.910903E-013
 0.910863E-013
 0.911061E-013
 0.910371E-013
 0.912493E-013
 0.907243E-013
 0.917545E-013
 0.918445E-013
 0.906737E-013
 0.912749E-013
 0.910322E-013
 0.911123E-013
 0.910903E-013
 0.910957E-013
 0.910947E-013
 0.910950E-013
 0.910951E-013
 0.910952E-013
 0.910954E-013
 0.910955E-013
 0.910956E-013
 0.910957E-013
 0.910958E-013
 0.910960E-013
 0.910961E-013
 0.910962E-013
 0.910963E-013
 0.910964E-013
 0.910965E-013
 0.910967E-013
 0.910968E-013
 0.910969E-013
 0.910970E-013
 0.910971E-013
 0.910972E-013
 0.910973E-013
 0.910974E-013
 0.910976E-013
 0.910977E-013
 0.910978E-013
 0.910979E-013
 0.910980E-013
 0.910981E-013
 0.910982E-013
 0.910983E-013
 0.910984E-013
 0.910985E-013
 0.910986E-013
 0.910986E-013
 0.910987E-013
 0.910988E-013
 0.910989E-013
 0.910990E-013
 0.910990E-013
 0.910991E-013
 0.910992E-013
 0.910992E-013
 0.910993E-013
 0.910994E-013
 0.910994E-013
 0.910995E-013
 0.910995E-013
 0.910996E-013
 0.910996E-013
 0.910996E-013
 0.910997E-013
 0.910997E-013
 0.910997E-013
 0.910997E-013
 0.910997E-013
 0.910997E-013
 0.910997E-013
 0.910997E-013
 0.910997E-013
 0.910997E-013
 0.910997E-013
 0.910997E-013
 0.910996E-013
 0.910996E-013
 0.910996E-013
 0.910995E-013
 0.910995E-013
 0.910994E-013
 0.910994E-013
 0.910993E-013
 0.910992E-013
 0.910992E-013
 0.910991E-013
 0.910990E-013
 0.910990E-013
 0.910989E-013
 0.910988E-013
 0.910987E-013
 0.910986E-013
 0.910986E-013
 0.910985E-013
 0.910984E-013
 0.910983E-013
 0.910982E-013
 0.910981E-013
 0.910980E-013
 0.910979E-013
 0.910978E-013
 0.910977E-013
 0.910976E-013
 0.910974E-013
 0.910973E-013
 0.910972E-013
 0.910971E-013
 0.910970E-013
 0.910969E-013
 0.910968E-013
 0.910967E-013
 0.910965E-013
 0.910964E-013
 0.910963E-013
 0.910962E-013
 0.910961E-013
 0.910960E-013
 0.910958E-013
 0.910957E-013
 0.910956E-013
 0.910955E-013
 0.910954E-013
 0.910952E-013
 0.910951E-013
 0.910950E-013
 0.910947E-013
 0.910957E-013
 0.910903E-013
 0.911123E-013
 0.910322E-013
 0.912749E-013
 0.906738E-013
 0.918446E-013
 0.919330E-013
 0.906213E-013
 0.912974E-013
 0.910234E-013
 0.911138E-013
 0.910888E-013
 0.910947E-013
 0.910934E-013
 0.910936E-013
 0.910936E-013
 0.910936E-013
 0.910935E-013
 0.910935E-013
 0.910935E-013
 0.910935E-013
 0.910935E-013
 0.910934E-013
 0.910934E-013
 0.910934E-013
 0.910934E-013
 0.910934E-013
 0.910933E-013
 0.910933E-013
 0.910933E-013
 0.910933E-013
 0.910933E-013
 0.910932E-013
 0.910932E-013
 0.910932E-013
 0.910932E-013
 0.910932E-013
 0.910931E-013
 0.910931E-013
 0.910931E-013
 0.910931E-013
 0.910931E-013
 0.910931E-013
 0.910931E-013
 0.910930E-013
 0.910930E-013
 0.910930E-013
 0.910930E-013
 0.910930E-013
 0.910930E-013
 0.910930E-013
 0.910930E-013
 0.910930E-013
 0.910930E-013
 0.910930E-013
 0.910929E-013
 0.910929E-013
 0.910929E-013
 0.910929E-013
 0.910929E-013
 0.910929E-013
 0.910929E-013
 0.910929E-013
 0.910929E-013
 0.910929E-013
 0.910929E-013
 0.910929E-013
 0.910929E-013
 0.910929E-013
 0.910929E-013
 0.910929E-013
 0.910929E-013
 0.910929E-013
 0.910929E-013
 0.910929E-013
 0.910929E-013
 0.910929E-013
 0.910929E-013
 0.910929E-013
 0.910929E-013
 0.910929E-013
 0.910929E-013
 0.910929E-013
 0.910929E-013
 0.910930E-013
 0.910930E-013
 0.910930E-013
 0.910930E-013
 0.910930E-013
 0.910930E-013
 0.910930E-013
 0.910930E-013
 0.910930E-013
 0.910930E-013
 0.910930E-013
 0.910930E-013
 0.910931E-013
 0.910931E-013
 0.910931E-013
 0.910931E-013
 0.910931E-013
 0.910931E-013
 0.910931E-013
 0.910932E-013
 0.910932E-013
 0.910932E-013
 0.910932E-013
 0.910932E-013
 0.910933E-013
 0.910933E-013
 0.910933E-013
 0.910933E-013
 0.910933E-013
 0.910934E-013
 0.910934E-013
 0.910934E-013
 0.910934E-013
 0.910934E-013
 0.910935E-013
 0.910935E-013
 0.910935E-013
 0.910935E-013
 0.910935E-013
 0.910936E-013
 0.910936E-013
 0.910936E-013
 0.910934E-013
 0.910947E-013
 0.910888E-013
 0.911138E-013
 0.910235E-013
 0.912974E-013
 0.906213E-013
 0.919330E-013
 0.920214E-013
 0.905694E-013
 0.913205E-013
 0.910155E-013
 0.911163E-013
 0.910884E-013
 0.910950E-013
 0.910936E-013
 0.910939E-013
 0.910939E-013
 0.910939E-013
 0.910939E-013
 0.910939E-013
 0.910939E-013
 0.910939E-013
 0.910939E-013
 0.910939E-013
 0.910939E-013
 0.910939E-013
 0.910939E-013
 0.910939E-013
 0.910939E-013
 0.910939E-013
 0.910939E-013
 0.910939E-013
 0.910939E-013
 0.910940E-013
 0.910940E-013
 0.910940E-013
 0.910940E-013
 0.910940E-013
 0.910940E-013
 0.910940E-013
 0.910940E-013
 0.910940E-013
 0.910940E-013
 0.910940E-013
 0.910940E-013
 0.910940E-013
 0.910941E-013
 0.910941E-013
 0.910941E-013
 0.910941E-013
 0.910941E-013
 0.910941E-013
 0.910941E-013
 0.910941E-013
 0.910941E-013
 0.910941E-013
 0.910941E-013
 0.910941E-013
 0.910942E-013
 0.910942E-013
 0.910942E-013
 0.910942E-013
 0.910942E-013
 0.910942E-013
 0.910942E-013
 0.910942E-013
 0.910942E-013
 0.910942E-013
 0.910942E-013
 0.910942E-013
 0.910942E-013
 0.910942E-013
 0.910942E-013
 0.910942E-013
 0.910942E-013
 0.910942E-013
 0.910942E-013
 0.910942E-013
 0.910942E-013
 0.910942E-013
 0.910942E-013
 0.910942E-013
 0.910942E-013
 0.910942E-013
 0.910941E-013
 0.910941E-013
 0.910941E-013
 0.910941E-013
 0.910941E-013
 0.910941E-013
 0.910941E-013
 0.910941E-013
 0.910941E-013
 0.910941E-013
 0.910941E-013
 0.910941E-013
 0.910940E-013
 0.910940E-013
 0.910940E-013
 0.910940E-013
 0.910940E-013
 0.910940E-013
 0.910940E-013
 0.910940E-013
 0.910940E-013
 0.910940E-013
 0.910940E-013
 0.910940E-013
 0.910940E-013
 0.910939E-013
 0.910939E-013
 0.910939E-013
 0.910939E-013
 0.910939E-013
 0.910939E-013
 0.910939E-013
 0.910939E-013
 0.910939E-013
 0.910939E-013
 0.910939E-013
 0.910939E-013
 0.910939E-013
 0.910939E-013
 0.910939E-013
 0.910939E-013
 0.910939E-013
 0.910939E-013
 0.910936E-013
 0.910950E-013
 0.910884E-013
 0.911163E-013
 0.910155E-013
 0.913205E-013
 0.905694E-013
 0.920214E-013
 0.921095E-013
 0.905176E-013
 0.913434E-013
 0.910075E-013
 0.911186E-013
 0.910878E-013
 0.910951E-013
 0.910936E-013
 0.910939E-013
 0.910938E-013
 0.910938E-013
 0.910938E-013
 0.910938E-013
 0.910938E-013
 0.910938E-013
 0.910938E-013
 0.910938E-013
 0.910938E-013
 0.910938E-013
 0.910938E-013
 0.910938E-013
 0.910938E-013
 0.910938E-013
 0.910938E-013
 0.910938E-013
 0.910938E-013
 0.910938E-013
 0.910938E-013
 0.910938E-013
 0.910938E-013
 0.910939E-013
 0.910939E-013
 0.910939E-013
 0.910939E-013
 0.910939E-013
 0.910939E-013
 0.910939E-013
 0.910939E-013
 0.910939E-013
 0.910939E-013
 0.910939E-013
 0.910939E-013
 0.910939E-013
 0.910939E-013
 0.910939E-013
 0.910939E-013
 0.910939E-013
 0.910940E-013
 0.910940E-013
 0.910940E-013
 0.910940E-013
 0.910940E-013
 0.910940E-013
 0.910940E-013
 0.910940E-013
 0.910940E-013
 0.910940E-013
 0.910940E-013
 0.910940E-013
 0.910940E-013
 0.910940E-013
 0.910940E-013
 0.910940E-013
 0.910940E-013
 0.910940E-013
 0.910940E-013
 0.910940E-013
 0.910940E-013
 0.910940E-013
 0.910940E-013
 0.910940E-013
 0.910940E-013
 0.910940E-013
 0.910940E-013
 0.910940E-013
 0.910940E-013
 0.910940E-013
 0.910940E-013
 0.910940E-013
 0.910940E-013
 0.910940E-013
 0.910939E-013
 0.910939E-013
 0.910939E-013
 0.910939E-013
 0.910939E-013
 0.910939E-013
 0.910939E-013
 0.910939E-013
 0.910939E-013
 0.910939E-013
 0.910939E-013
 0.910939E-013
 0.910939E-013
 0.910939E-013
 0.910939E-013
 0.910939E-013
 0.910939E-013
 0.910938E-013
 0.910938E-013
 0.910938E-013
 0.910938E-013
 0.910938E-013
 0.910938E-013
 0.910938E-013
 0.910938E-013
 0.910938E-013
 0.910938E-013
 0.910938E-013
 0.910938E-013
 0.910938E-013
 0.910938E-013
 0.910938E-013
 0.910938E-013
 0.910938E-013
 0.910938E-013
 0.910938E-013
 0.910938E-013
 0.910938E-013
 0.910939E-013
 0.910936E-013
 0.910951E-013
 0.910878E-013
 0.911186E-013
 0.910075E-013
 0.913433E-013
 0.905176E-013
 0.921095E-013
 0.921974E-013
 0.904660E-013
 0.913662E-013
 0.909995E-013
 0.911209E-013
 0.910872E-013
 0.910952E-013
 0.910936E-013
 0.910939E-013
 0.910938E-013
 0.910938E-013
 0.910938E-013
 0.910938E-013
 0.910938E-013
 0.910938E-013
 0.910938E-013
 0.910938E-013
 0.910938E-013
 0.910938E-013
 0.910938E-013
 0.910938E-013
 0.910938E-013
 0.910939E-013
 0.910939E-013
 0.910939E-013
 0.910939E-013
 0.910939E-013
 0.910939E-013
 0.910939E-013
 0.910939E-013
 0.910939E-013
 0.910939E-013
 0.910939E-013
 0.910939E-013
 0.910939E-013
 0.910939E-013
 0.910939E-013
 0.910939E-013
 0.910939E-013
 0.910939E-013
 0.910939E-013
 0.910940E-013
 0.910940E-013
 0.910940E-013
 0.910940E-013
 0.910940E-013
 0.910940E-013
 0.910940E-013
 0.910940E-013