# vtk DataFile Version 3.0
Solution data
ASCII
DATASET STRUCTURED_GRID
DIMENSIONS 128 128 1
POINTS 16384  double
      0.000004      0.000004      0.000000
      0.000012      0.000004      0.000000
      0.000020      0.000004      0.000000
      0.000027      0.000004      0.000000
      0.000035      0.000004      0.000000
      0.000043      0.000004      0.000000
      0.000051      0.000004      0.000000
      0.000059      0.000004      0.000000
      0.000066      0.000004      0.000000
      0.000074      0.000004      0.000000
      0.000082      0.000004      0.000000
      0.000090      0.000004      0.000000
      0.000098      0.000004      0.000000
      0.000105      0.000004      0.000000
      0.000113      0.000004      0.000000
      0.000121      0.000004      0.000000
      0.000129      0.000004      0.000000
      0.000137      0.000004      0.000000
      0.000145      0.000004      0.000000
      0.000152      0.000004      0.000000
      0.000160      0.000004      0.000000
      0.000168      0.000004      0.000000
      0.000176      0.000004      0.000000
      0.000184      0.000004      0.000000
      0.000191      0.000004      0.000000
      0.000199      0.000004      0.000000
      0.000207      0.000004      0.000000
      0.000215      0.000004      0.000000
      0.000223      0.000004      0.000000
      0.000230      0.000004      0.000000
      0.000238      0.000004      0.000000
      0.000246      0.000004      0.000000
      0.000254      0.000004      0.000000
      0.000262      0.000004      0.000000
      0.000270      0.000004      0.000000
      0.000277      0.000004      0.000000
      0.000285      0.000004      0.000000
      0.000293      0.000004      0.000000
      0.000301      0.000004      0.000000
      0.000309      0.000004      0.000000
      0.000316      0.000004      0.000000
      0.000324      0.000004      0.000000
      0.000332      0.000004      0.000000
      0.000340      0.000004      0.000000
      0.000348      0.000004      0.000000
      0.000355      0.000004      0.000000
      0.000363      0.000004      0.000000
      0.000371      0.000004      0.000000
      0.000379      0.000004      0.000000
      0.000387      0.000004      0.000000
      0.000395      0.000004      0.000000
      0.000402      0.000004      0.000000
      0.000410      0.000004      0.000000
      0.000418      0.000004      0.000000
      0.000426      0.000004      0.000000
      0.000434      0.000004      0.000000
      0.000441      0.000004      0.000000
      0.000449      0.000004      0.000000
      0.000457      0.000004      0.000000
      0.000465      0.000004      0.000000
      0.000473      0.000004      0.000000
      0.000480      0.000004      0.000000
      0.000488      0.000004      0.000000
      0.000496      0.000004      0.000000
      0.000504      0.000004      0.000000
      0.000512      0.000004      0.000000
      0.000520      0.000004      0.000000
      0.000527      0.000004      0.000000
      0.000535      0.000004      0.000000
      0.000543      0.000004      0.000000
      0.000551      0.000004      0.000000
      0.000559      0.000004      0.000000
      0.000566      0.000004      0.000000
      0.000574      0.000004      0.000000
      0.000582      0.000004      0.000000
      0.000590      0.000004      0.000000
      0.000598      0.000004      0.000000
      0.000605      0.000004      0.000000
      0.000613      0.000004      0.000000
      0.000621      0.000004      0.000000
      0.000629      0.000004      0.000000
      0.000637      0.000004      0.000000
      0.000645      0.000004      0.000000
      0.000652      0.000004      0.000000
      0.000660      0.000004      0.000000
      0.000668      0.000004      0.000000
      0.000676      0.000004      0.000000
      0.000684      0.000004      0.000000
      0.000691      0.000004      0.000000
      0.000699      0.000004      0.000000
      0.000707      0.000004      0.000000
      0.000715      0.000004      0.000000
      0.000723      0.000004      0.000000
      0.000730      0.000004      0.000000
      0.000738      0.000004      0.000000
      0.000746      0.000004      0.000000
      0.000754      0.000004      0.000000
      0.000762      0.000004      0.000000
      0.000770      0.000004      0.000000
      0.000777      0.000004      0.000000
      0.000785      0.000004      0.000000
      0.000793      0.000004      0.000000
      0.000801      0.000004      0.000000
      0.000809      0.000004      0.000000
      0.000816      0.000004      0.000000
      0.000824      0.000004      0.000000
      0.000832      0.000004      0.000000
      0.000840      0.000004      0.000000
      0.000848      0.000004      0.000000
      0.000855      0.000004      0.000000
      0.000863      0.000004      0.000000
      0.000871      0.000004      0.000000
      0.000879      0.000004      0.000000
      0.000887      0.000004      0.000000
      0.000895      0.000004      0.000000
      0.000902      0.000004      0.000000
      0.000910      0.000004      0.000000
      0.000918      0.000004      0.000000
      0.000926      0.000004      0.000000
      0.000934      0.000004      0.000000
      0.000941      0.000004      0.000000
      0.000949      0.000004      0.000000
      0.000957      0.000004      0.000000
      0.000965      0.000004      0.000000
      0.000973      0.000004      0.000000
      0.000980      0.000004      0.000000
      0.000988      0.000004      0.000000
      0.000996      0.000004      0.000000
      0.000004      0.000012      0.000000
      0.000012      0.000012      0.000000
      0.000020      0.000012      0.000000
      0.000027      0.000012      0.000000
      0.000035      0.000012      0.000000
      0.000043      0.000012      0.000000
      0.000051      0.000012      0.000000
      0.000059      0.000012      0.000000
      0.000066      0.000012      0.000000
      0.000074      0.000012      0.000000
      0.000082      0.000012      0.000000
      0.000090      0.000012      0.000000
      0.000098      0.000012      0.000000
      0.000105      0.000012      0.000000
      0.000113      0.000012      0.000000
      0.000121      0.000012      0.000000
      0.000129      0.000012      0.000000
      0.000137      0.000012      0.000000
      0.000145      0.000012      0.000000
      0.000152      0.000012      0.000000
      0.000160      0.000012      0.000000
      0.000168      0.000012      0.000000
      0.000176      0.000012      0.000000
      0.000184      0.000012      0.000000
      0.000191      0.000012      0.000000
      0.000199      0.000012      0.000000
      0.000207      0.000012      0.000000
      0.000215      0.000012      0.000000
      0.000223      0.000012      0.000000
      0.000230      0.000012      0.000000
      0.000238      0.000012      0.000000
      0.000246      0.000012      0.000000
      0.000254      0.000012      0.000000
      0.000262      0.000012      0.000000
      0.000270      0.000012      0.000000
      0.000277      0.000012      0.000000
      0.000285      0.000012      0.000000
      0.000293      0.000012      0.000000
      0.000301      0.000012      0.000000
      0.000309      0.000012      0.000000
      0.000316      0.000012      0.000000
      0.000324      0.000012      0.000000
      0.000332      0.000012      0.000000
      0.000340      0.000012      0.000000
      0.000348      0.000012      0.000000
      0.000355      0.000012      0.000000
      0.000363      0.000012      0.000000
      0.000371      0.000012      0.000000
      0.000379      0.000012      0.000000
      0.000387      0.000012      0.000000
      0.000395      0.000012      0.000000
      0.000402      0.000012      0.000000
      0.000410      0.000012      0.000000
      0.000418      0.000012      0.000000
      0.000426      0.000012      0.000000
      0.000434      0.000012      0.000000
      0.000441      0.000012      0.000000
      0.000449      0.000012      0.000000
      0.000457      0.000012      0.000000
      0.000465      0.000012      0.000000
      0.000473      0.000012      0.000000
      0.000480      0.000012      0.000000
      0.000488      0.000012      0.000000
      0.000496      0.000012      0.000000
      0.000504      0.000012      0.000000
      0.000512      0.000012      0.000000
      0.000520      0.000012      0.000000
      0.000527      0.000012      0.000000
      0.000535      0.000012      0.000000
      0.000543      0.000012      0.000000
      0.000551      0.000012      0.000000
      0.000559      0.000012      0.000000
      0.000566      0.000012      0.000000
      0.000574      0.000012      0.000000
      0.000582      0.000012      0.000000
      0.000590      0.000012      0.000000
      0.000598      0.000012      0.000000
      0.000605      0.000012      0.000000
      0.000613      0.000012      0.000000
      0.000621      0.000012      0.000000
      0.000629      0.000012      0.000000
      0.000637      0.000012      0.000000
      0.000645      0.000012      0.000000
      0.000652      0.000012      0.000000
      0.000660      0.000012      0.000000
      0.000668      0.000012      0.000000
      0.000676      0.000012      0.000000
      0.000684      0.000012      0.000000
      0.000691      0.000012      0.000000
      0.000699      0.000012      0.000000
      0.000707      0.000012      0.000000
      0.000715      0.000012      0.000000
      0.000723      0.000012      0.000000
      0.000730      0.000012      0.000000
      0.000738      0.000012      0.000000
      0.000746      0.000012      0.000000
      0.000754      0.000012      0.000000
      0.000762      0.000012      0.000000
      0.000770      0.000012      0.000000
      0.000777      0.000012      0.000000
      0.000785      0.000012      0.000000
[...]
POINT_DATA 16384
SCALARS rhoe double
LOOKUP_TABLE default
 0.916705E-013
 0.912108E-013
 0.915528E-013
 0.915231E-013
 0.916427E-013
 0.917095E-013
 0.917924E-013
 0.918706E-013
 0.919497E-013
 0.920283E-013
 0.921067E-013
 0.921849E-013
 0.922627E-013
 0.923403E-013
 0.924176E-013
 0.924945E-013
 0.925711E-013
 0.926473E-013
 0.927231E-013
 0.927985E-013
 0.928734E-013
 0.929478E-013
 0.930217E-013
 0.930951E-013
 0.931678E-013
 0.932399E-013
 0.933113E-013
 0.933820E-013
 0.934519E-013
 0.935210E-013
 0.935891E-013
 0.936563E-013
 0.937226E-013
 0.937877E-013
 0.938517E-013
 0.939145E-013
 0.939761E-013
 0.940363E-013
 0.940951E-013
 0.941525E-013
 0.942083E-013
 0.942625E-013
 0.943150E-013
 0.943657E-013
 0.944146E-013
 0.944615E-013
 0.945065E-013
 0.945494E-013
 0.945903E-013
 0.946289E-013
 0.946652E-013
 0.946993E-013
 0.947310E-013
 0.947602E-013
 0.947870E-013
 0.948112E-013
 0.948329E-013
 0.948519E-013
 0.948683E-013
 0.948821E-013
 0.948931E-013
 0.949013E-013
 0.949068E-013
 0.949096E-013
 0.949096E-013
 0.949068E-013
 0.949013E-013
 0.948931E-013
 0.948821E-013
 0.948684E-013
 0.948520E-013
 0.948329E-013
 0.948113E-013
 0.947870E-013
 0.947603E-013
 0.947310E-013
 0.946993E-013
 0.946653E-013
 0.946289E-013
 0.945903E-013
 0.945495E-013
 0.945065E-013
 0.944616E-013
 0.944146E-013
 0.943657E-013
 0.943150E-013
 0.942625E-013
 0.942083E-013
 0.941525E-013
 0.940952E-013
 0.940364E-013
 0.939761E-013
 0.939146E-013
 0.938518E-013
 0.937877E-013
 0.937226E-013
 0.936564E-013
 0.935892E-013
 0.935210E-013
 0.934519E-013
 0.933820E-013
 0.933114E-013
 0.932399E-013
 0.931678E-013
 0.930951E-013
 0.930218E-013
 0.929479E-013
 0.928734E-013
 0.927985E-013
 0.927231E-013
 0.926473E-013
 0.925711E-013
 0.924945E-013
 0.924176E-013
 0.923403E-013
 0.922628E-013
 0.921849E-013
 0.921068E-013
 0.920284E-013
 0.919497E-013
 0.918706E-013
 0.917924E-013
 0.917095E-013
 0.916427E-013
 0.915231E-013
 0.915528E-013
 0.912108E-013
 0.916705E-013
 0.912108E-013
 0.907573E-013
 0.909420E-013
 0.907718E-013
 0.907643E-013
 0.906940E-013
 0.906448E-013
 0.905897E-013
 0.905363E-013
 0.904826E-013
 0.904293E-013
 0.903761E-013
 0.903231E-013
 0.902703E-013
 0.902177E-013
 0.901653E-013
 0.901132E-013
 0.900613E-013
 0.900097E-013
 0.899584E-013
 0.899074E-013
 0.898567E-013
 0.898064E-013
 0.897564E-013
 0.897069E-013
 0.896578E-013
 0.896091E-013
 0.895610E-013
 0.895134E-013
 0.894663E-013
 0.894199E-013
 0.893741E-013
 0.893289E-013
 0.892845E-013
 0.892409E-013
 0.891980E-013
 0.891560E-013
 0.891150E-013
 0.890749E-013
 0.890357E-013
 0.889977E-013
 0.889607E-013
 0.889249E-013
 0.888903E-013
 0.888569E-013
 0.888248E-013
 0.887941E-013
 0.887648E-013
 0.887369E-013
 0.887106E-013
 0.886857E-013
 0.886625E-013
 0.886408E-013
 0.886208E-013
 0.886025E-013
 0.885860E-013
 0.885712E-013
 0.885582E-013
 0.885470E-013
 0.885376E-013
 0.885301E-013
 0.885244E-013
 0.885207E-013
 0.885188E-013
 0.885188E-013
 0.885207E-013
 0.885244E-013
 0.885301E-013
 0.885376E-013
 0.885470E-013
 0.885582E-013
 0.885712E-013
 0.885860E-013
 0.886026E-013
 0.886208E-013
 0.886408E-013
 0.886625E-013
 0.886857E-013
 0.887106E-013
 0.887369E-013
 0.887648E-013
 0.887941E-013
 0.888248E-013
 0.888569E-013
 0.888903E-013
 0.889249E-013
 0.889607E-013
 0.889977E-013
 0.890357E-013
 0.890749E-013
 0.891150E-013
 0.891561E-013
 0.891980E-013
 0.892409E-013
 0.892845E-013
 0.893289E-013
 0.893741E-013
 0.894199E-013
 0.894663E-013
 0.895134E-013
 0.895610E-013
 0.896092E-013
 0.896578E-013
 0.897069E-013
 0.897565E-013
 0.898064E-013
 0.898567E-013
 0.899074E-013
 0.899584E-013
 0.900097E-013
 0.900613E-013
 0.901132E-013
 0.901653E-013
 0.902177E-013
 0.902703E-013
 0.903231E-013
 0.903761E-013
 0.904293E-013
 0.904827E-013
 0.905363E-013
 0.905897E-013
 0.906448E-013
 0.906940E-013
 0.907643E-013
 0.907718E-013
 0.909420E-013
 0.907574E-013
 0.912108E-013
 0.915528E-013
 0.909420E-013
 0.913303E-013
 0.911907E-013
 0.912872E-013
 0.912931E-013
 0.913291E-013
 0.913562E-013
 0.913855E-013
 0.914142E-013
 0.914429E-013
 0.914715E-013
 0.915000E-013
 0.915283E-013
 0.915565E-013
 0.915846E-013
 0.916126E-013
 0.916405E-013
 0.916682E-013
 0.916957E-013
 0.917231E-013
 0.917503E-013
 0.917773E-013
 0.918041E-013
 0.918307E-013
 0.918571E-013
 0.918832E-013
 0.919090E-013
 0.919346E-013
 0.919599E-013
 0.919848E-013
 0.920094E-013
 0.920337E-013
 0.920575E-013
 0.920809E-013
 0.921040E-013
 0.921265E-013
 0.921486E-013
 0.921701E-013
 0.921911E-013
 0.922116E-013
 0.922314E-013
 0.922507E-013
 0.922693E-013
 0.922872E-013
 0.923045E-013
 0.923210E-013
 0.923367E-013
 0.923517E-013
 0.923659E-013
 0.923792E-013
 0.923917E-013
 0.924034E-013
 0.924141E-013
 0.924239E-013
 0.924328E-013
 0.924408E-013
 0.924478E-013
 0.924538E-013
 0.924588E-013
 0.924629E-013
 0.924659E-013
 0.924679E-013
 0.924690E-013
 0.924690E-013
 0.924679E-013
 0.924659E-013
 0.924629E-013
 0.924588E-013
 0.924538E-013
 0.924478E-013
 0.924408E-013
 0.924328E-013
 0.924239E-013
 0.924141E-013
 0.924033E-013
 0.923917E-013
 0.923792E-013
 0.923658E-013
 0.923517E-013
 0.923367E-013
 0.923209E-013
 0.923044E-013
 0.922872E-013
 0.922693E-013
 0.922507E-013
 0.922314E-013
 0.922116E-013
 0.921911E-013
 0.921701E-013
 0.921485E-013
 0.921265E-013
 0.921039E-013
 0.920809E-013
 0.920575E-013
 0.920336E-013
 0.920094E-013
 0.919848E-013
 0.919598E-013
 0.919346E-013
 0.919090E-013
 0.918832E-013
 0.918570E-013
 0.918307E-013
 0.918041E-013
 0.917773E-013
 0.917503E-013
 0.917231E-013
 0.916957E-013
 0.916681E-013
 0.916404E-013
 0.916126E-013
 0.915846E-013
 0.915565E-013
 0.915283E-013
 0.914999E-013
 0.914715E-013
 0.914429E-013
 0.914142E-013
 0.913855E-013
 0.913562E-013
 0.913291E-013
 0.912931E-013
 0.912872E-013
 0.911907E-013
 0.913302E-013
 0.909420E-013
 0.915528E-013
 0.915231E-013
 0.907718E-013
 0.911907E-013
 0.909700E-013
 0.910413E-013
 0.909993E-013
 0.909954E-013
 0.909803E-013
 0.909682E-013
 0.909555E-013
 0.909429E-013
 0.909303E-013
 0.909179E-013
 0.909054E-013
 0.908930E-013
 0.908807E-013
 0.908684E-013
 0.908562E-013
 0.908440E-013
 0.908319E-013
 0.908199E-013
 0.908079E-013
 0.907961E-013
 0.907843E-013
 0.907726E-013
 0.907610E-013
 0.907496E-013
 0.907382E-013
 0.907270E-013
 0.907159E-013
 0.907050E-013
 0.906941E-013
 0.906835E-013
 0.906730E-013
 0.906627E-013
 0.906526E-013
 0.906427E-013
 0.906330E-013
 0.906236E-013
 0.906143E-013
 0.906054E-013
 0.905966E-013
 0.905882E-013
 0.905800E-013
 0.905721E-013
 0.905646E-013
 0.905573E-013
 0.905504E-013
 0.905438E-013
 0.905376E-013
 0.905317E-013
 0.905262E-013
 0.905211E-013
 0.905164E-013
 0.905121E-013
 0.905081E-013
 0.905047E-013
 0.905016E-013
 0.904989E-013
 0.904967E-013
 0.904949E-013
 0.904936E-013
 0.904927E-013
 0.904923E-013
 0.904923E-013
 0.904927E-013
 0.904936E-013
 0.904949E-013
 0.904967E-013
 0.904989E-013
 0.905016E-013
 0.905047E-013
 0.905082E-013
 0.905121E-013
 0.905164E-013
 0.905211E-013
 0.905262E-013
 0.905317E-013
 0.905376E-013
 0.905438E-013
 0.905504E-013
 0.905573E-013
 0.905646E-013
 0.905721E-013
 0.905800E-013
 0.905882E-013
 0.905966E-013
 0.906054E-013
 0.906144E-013
 0.906236E-013
 0.906331E-013
 0.906427E-013
 0.906526E-013
 0.906628E-013
 0.906730E-013
 0.906835E-013
 0.906942E-013
 0.907050E-013
 0.907159E-013
 0.907270E-013
 0.907382E-013
 0.907496E-013
 0.907611E-013
 0.907726E-013
 0.907843E-013
 0.907961E-013
 0.908080E-013
 0.908199E-013
 0.908319E-013
 0.908440E-013
 0.908562E-013
 0.908684E-013
 0.908807E-013
 0.908930E-013
 0.909054E-013
 0.909179E-013
 0.909304E-013
 0.909429E-013
 0.909555E-013
 0.909682E-013
 0.909803E-013
 0.909954E-013
 0.909993E-013
 0.910413E-013
 0.909700E-013
 0.911907E-013
 0.907718E-013
 0.915231E-013
 0.916427E-013
 0.907643E-013
 0.912872E-013
 0.910413E-013
 0.911479E-013
 0.911171E-013
 0.911326E-013
 0.911344E-013
 0.911398E-013
 0.911443E-013
 0.911490E-013
 0.911536E-013
 0.911582E-013
 0.911628E-013
 0.911674E-013
 0.911719E-013
 0.911765E-013
 0.911810E-013
 0.911855E-013
 0.911899E-013
 0.911944E-013
 0.911988E-013
 0.912031E-013
 0.912075E-013
 0.912118E-013
 0.912161E-013
 0.912203E-013
 0.912245E-013
 0.912286E-013
 0.912327E-013
 0.912368E-013
 0.912408E-013
 0.912447E-013
 0.912485E-013
 0.912523E-013
 0.912561E-013
 0.912597E-013
 0.912633E-013
 0.912668E-013
 0.912702E-013
 0.912735E-013
 0.912767E-013
 0.912799E-013
 0.912829E-013
 0.912858E-013
 0.912886E-013
 0.912913E-013
 0.912938E-013
 0.912962E-013
 0.912985E-013
 0.913007E-013
 0.913027E-013
 0.913046E-013
 0.913064E-013
 0.913080E-013
 0.913094E-013
 0.913107E-013
 0.913118E-013
 0.913128E-013
 0.913136E-013
 0.913143E-013
 0.913148E-013
 0.913151E-013
 0.913153E-013
 0.913153E-013
 0.913151E-013
 0.913148E-013
 0.913143E-013
 0.913136E-013
 0.913128E-013
 0.913118E-013
 0.913107E-013
 0.913094E-013
 0.913080E-013
 0.913064E-013
 0.913046E-013
 0.913027E-013
 0.913007E-013
 0.912985E-013
 0.912962E-013
 0.912938E-013
 0.912913E-013
 0.912886E-013
 0.912858E-013
 0.912829E-013
 0.912799E-013
 0.912767E-013
 0.912735E-013
 0.912702E-013
 0.912668E-013
 0.912633E-013
 0.912597E-013
 0.912561E-013
 0.912523E-013
 0.912485E-013
 0.912447E-013
 0.912407E-013
 0.912368E-013
 0.912327E-013
 0.912286E-013
 0.912245E-013
 0.912203E-013
 0.912161E-013
 0.912118E-013
 0.912075E-013
 0.912031E-013
 0.911988E-013
 0.911944E-013
 0.911899E-013
 0.911855E-013
 0.911810E-013
 0.911765E-013
 0.911719E-013
 0.911674E-013
 0.911628E-013
 0.911582E-013
 0.911536E-013
 0.911489E-013
 0.911443E-013
 0.911398E-013
 0.911344E-013
 0.911326E-013
 0.911171E-013
 0.911479E-013
 0.910413E-013
 0.912872E-013
 0.907643E-013
 0.916427E-013
 0.917095E-013
 0.906940E-013
 0.912931E-013
 0.909993E-013
 0.911171E-013
 0.910740E-013
 0.910851E-013
 0.910803E-013
 0.910796E-013
 0.910779E-013
 0.910765E-013
 0.910750E-013
 0.910736E-013
 0.910721E-013
 0.910707E-013
 0.910692E-013
 0.910678E-013
 0.910663E-013
 0.910649E-013
 0.910635E-013
 0.910621E-013
 0.910607E-013
 0.910593E-013
 0.910579E-013
 0.910566E-013
 0.910552E-013
 0.910539E-013
 0.910525E-013
 0.910512E-013
 0.910499E-013
 0.910487E-013
 0.910474E-013
 0.910461E-013
 0.910449E-013
 0.910437E-013
 0.910425E-013
 0.910414E-013
 0.910402E-013
 0.910391E-013
 0.910381E-013
 0.910370E-013
 0.910360E-013
 0.910350E-013
 0.910341E-013
 0.910331E-013
 0.910323E-013
 0.910314E-013
 0.910306E-013
 0.910298E-013
 0.910291E-013
 0.910284E-013
 0.910278E-013
 0.910272E-013
 0.910266E-013
 0.910261E-013
 0.910257E-013
 0.910253E-013
 0.910249E-013
 0.910246E-013
 0.910243E-013
 0.910241E-013
 0.910240E-013
 0.910239E-013
 0.910238E-013
 0.910238E-013
 0.910239E-013
 0.910240E-013
 0.910241E-013
 0.910243E-013
 0.910246E-013
 0.910249E-013
 0.910253E-013
 0.910257E-013
 0.910261E-013
 0.910266E-013
 0.910272E-013
 0.910278E-013
 0.910284E-013
 0.910291E-013
 0.910298E-013
 0.910306E-013
 0.910314E-013
 0.910323E-013
 0.910331E-013
 0.910341E-013
 0.910350E-013
 0.910360E-013
 0.910370E-013
 0.910381E-013
 0.910391E-013
 0.910403E-013
 0.910414E-013
 0.910425E-013
 0.910437E-013
 0.910449E-013
 0.910461E-013
 0.910474E-013
 0.910487E-013
 0.910499E-013
 0.910512E-013
 0.910526E-013
 0.910539E-013
 0.910552E-013
 0.910566E-013
 0.910579E-013
 0.910593E-013
 0.910607E-013
 0.910621E-013
 0.910635E-013
 0.910649E-013
 0.910663E-013
 0.910678E-013
 0.910692E-013
 0.910707E-013
 0.910721E-013
 0.910736E-013
 0.910750E-013
 0.910765E-013
 0.910779E-013
 0.910796E-013
 0.910803E-013
 0.910851E-013
 0.910740E-013
 0.911171E-013
 0.909993E-013
 0.912931E-013
 0.906940E-013
 0.917095E-013
 0.917924E-013
 0.906448E-013
 0.913291E-013
 0.909954E-013
 0.911326E-013
 0.910851E-013
 0.911001E-013
 0.910966E-013
 0.910980E-013
 0.910982E-013
 0.910986E-013
 0.910990E-013
 0.910994E-013
 0.910998E-013
 0.911002E-013
 0.911006E-013
 0.911010E-013
 0.911014E-013
 0.911018E-013
 0.911022E-013
 0.911026E-013
 0.911030E-013
 0.911034E-013
 0.911038E-013
 0.911042E-013
 0.911045E-013
 0.911049E-013
 0.911053E-013
 0.911056E-013
 0.911060E-013
 0.911064E-013
 0.911067E-013
 0.911071E-013
 0.911074E-013
 0.911077E-013
 0.911081E-013
 0.911084E-013
 0.911087E-013
 0.911090E-013
 0.911093E-013
 0.911096E-013
 0.911099E-013
 0.911102E-013
 0.911105E-013
 0.911107E-013
 0.911110E-013
 0.911112E-013
 0.911114E-013
 0.911117E-013
 0.911119E-013
 0.911121E-013
 0.911122E-013
 0.911124E-013
 0.911126E-013
 0.911127E-013
 0.911128E-013
 0.911130E-013
 0.911131E-013
 0.911131E-013
 0.911132E-013
 0.911133E-013
 0.911133E-013
 0.911134E-013
 0.911134E-013
 0.911134E-013
 0.911134E-013
 0.911133E-013
 0.911133E-013
 0.911132E-013
 0.911131E-013
 0.911131E-013
 0.911130E-013
 0.911128E-013
 0.911127E-013
 0.911126E-013
 0.911124E-013
 0.911122E-013
 0.911121E-013
 0.911119E-013
 0.911117E-013
 0.911114E-013
 0.911112E-013
 0.911110E-013
 0.911107E-013
 0.911105E-013
 0.911102E-013
 0.911099E-013
 0.911096E-013
 0.911093E-013
 0.911090E-013
 0.911087E-013
 0.911084E-013
 0.911081E-013
 0.911077E-013
 0.911074E-013
 0.911071E-013
 0.911067E-013
 0.911064E-013
 0.911060E-013
 0.911056E-013
 0.911053E-013
 0.911049E-013
 0.911045E-013
 0.911042E-013
 0.911038E-013
 0.911034E-013
 0.911030E-013
 0.911026E-013
 0.911022E-013
 0.911018E-013
 0.911014E-013
 0.911010E-013
 0.911006E-013
 0.911002E-013
 0.910998E-013
 0.910994E-013
 0.910990E-013
 0.910986E-013
 0.910982E-013
 0.910980E-013
 0.910966E-013
 0.911001E-013
 0.910851E-013
 0.911326E-013
 0.909954E-013
 0.913291E-013
 0.906448E-013
 0.917924E-013
 0.918706E-013
 0.905897E-013
 0.913562E-013
 0.909803E-013
 0.911344E-013
 0.910803E-013
 0.910966E-013
 0.910921E-013
 0.910931E-013
 0.910927E-013
 0.910927E-013
 0.910926E-013
 0.910925E-013
 0.910924E-013
 0.910923E-013
 0.910922E-013
 0.910921E-013
 0.910920E-013
 0.910919E-013
 0.910918E-013
 0.910917E-013
 0.910916E-013
 0.910915E-013
 0.910914E-013
 0.910913E-013
 0.910912E-013
 0.910911E-013
 0.910910E-013
 0.910910E-013
 0.910909E-013
 0.910908E-013
 0.910907E-013
 0.910906E-013
 0.910905E-013
 0.910905E-013
 0.910904E-013
 0.910903E-013
 0.910902E-013
 0.910902E-013
 0.910901E-013
 0.910900E-013
 0.910900E-013
 0.910899E-013
 0.910898E-013
 0.910898E-013
 0.910897E-013
 0.910897E-013
 0.910896E-013
 0.910896E-013
 0.910895E-013
 0.910895E-013
 0.910894E-013
 0.910894E-013
 0.910894E-013
 0.910893E-013
 0.910893E-013
 0.910893E-013
 0.910893E-013
 0.910892E-013
 0.910892E-013
 0.910892E-013
 0.910892E-013
 0.910892E-013
 0.910892E-013
 0.910892E-013
 0.910892E-013
 0.910892E-013
 0.910892E-013
 0.910892E-013
 0.910893E-013
 0.910893E-013
 0.910893E-013
 0.910893E-013
 0.910893E-013
 0.910894E-013
 0.910894E-013
 0.910894E-013
 0.910895E-013
 0.910895E-013
 0.910896E-013
 0.910896E-013
 0.910897E-013
 0.910897E-013
 0.910898E-013
 0.910898E-013
 0.910899E-013
 0.910900E-013
 0.910900E-013
 0.910901E-013
 0.910902E-013
 0.910902E-013
 0.910903E-013
 0.910904E-013
 0.910905E-013
 0.910905E-013
 0.910906E-013
 0.910907E-013
 0.910908E-013
 0.910909E-013
 0.910910E-013
 0.910910E-013
 0.910911E-013
 0.910912E-013
 0.910913E-013
 0.910914E-013
 0.910915E-013
 0.910916E-013
 0.910917E-013
 0.910918E-013
 0.910919E-013
 0.910920E-013
 0.910921E-013
 0.910922E-013
 0.910923E-013
 0.910924E-013
 0.910925E-013
 0.910926E-013
 0.910927E-013
 0.910927E-013
 0.910931E-013
 0.910921E-013
 0.910966E-013
 0.910803E-013
 0.911344E-013
 0.909803E-013
 0.913562E-013
 0.905897E-013
 0.918706E-013
 0.919497E-013
 0.905363E-013
 0.913855E-013
 0.909682E-013
 0.911398E-013
 0.910796E-013
 0.910980E-013
 0.910931E-013
 0.910943E-013
 0.910940E-013
 0.910941E-013
 0.910941E-013
 0.910941E-013
 0.910942E-013
 0.910942E-013
 0.910942E-013
 0.910942E-013
 0.910943E-013
 0.910943E-013
 0.910943E-013
 0.910943E-013
 0.910943E-013
 0.910944E-013
 0.910944E-013
 0.910944E-013
 0.910944E-013
 0.910945E-013
 0.910945E-013
 0.910945E-013
 0.910945E-013
 0.910945E-013
 0.910946E-013
 0.910946E-013
 0.910946E-013
 0.910946E-013
 0.910947E-013
 0.910947E-013
 0.910947E-013
 0.910947E-013
 0.910947E-013
 0.910948E-013
 0.910948E-013
 0.910948E-013
 0.910948E-013
 0.910948E-013
 0.910949E-013
 0.910949E-013
 0.910949E-013
 0.910949E-013
 0.910949E-013
 0.910949E-013
 0.910950E-013
 0.910950E-013
 0.910950E-013
 0.910950E-013
 0.910950E-013
 0.910950E-013
 0.910950E-013
 0.910950E-013
 0.910950E-013
 0.910950E-013
 0.910951E-013
 0.910951E-013
 0.910951E-013
 0.910951E-013
 0.910951E-013
 0.910951E-013
 0.910950E-013
 0.910950E-013
 0.910950E-013
 0.910950E-013
 0.910950E-013
 0.910950E-013
 0.910950E-013
 0.910950E-013
 0.910950E-013
 0.910950E-013
 0.910949E-013
 0.910949E-013
 0.910949E-013
 0.910949E-013
 0.910949E-013
 0.910949E-013
 0.910948E-013
 0.910948E-013
 0.910948E-013
 0.910948E-013
 0.910948E-013
 0.910947E-013
 0.910947E-013
 0.910947E-013
 0.910947E-013
 0.910947E-013
 0.910946E-013
 0.910946E-013
 0.910946E-013
 0.910946E-013
 0.910945E-013
 0.910945E-013
 0.910945E-013
 0.910945E-013
 0.910945E-013
 0.910944E-013
 0.910944E-013
 0.910944E-013
 0.910944E-013
 0.910943E-013
 0.910943E-013
 0.910943E-013
 0.910943E-013
 0.910943E-013
 0.910942E-013
 0.910942E-013
 0.910942E-013
 0.910942E-013
 0.910941E-013
 0.910941E-013
 0.910941E-013
 0.910940E-013
 0.910943E-013
 0.910931E-013
 0.910980E-013
 0.910796E-013
 0.911398E-013
 0.909682E-013
 0.913855E-013
 0.905363E-013
 0.919497E-013
 0.920283E-013
 0.904826E-013
 0.914142E-013
 0.909555E-013
 0.911443E-013
 0.910779E-013
 0.910982E-013
 0.910927E-013
 0.910940E-013
 0.910937E-013
 0.910938E-013
 0.910938E-013
 0.910938E-013
 0.910938E-013
 0.910938E-013
 0.910938E-013
 0.910938E-013
 0.910938E-013
 0.910938E-013
 0.910938E-013
 0.910937E-013
 0.910937E-013
 0.910937E-013
 0.910937E-013
 0.910937E-013
 0.910937E-013
 0.910937E-013
 0.910937E-013
 0.910937E-013
 0.910937E-013
 0.910937E-013
 0.910937E-013
 0.910937E-013
 0.910937E-013
 0.910937E-013
 0.910937E-013
 0.910937E-013
 0.910937E-013
 0.910937E-013
 0.910937E-013
 0.910937E-013
 0.910938E-013
 0.910938E-013
 0.910938E-013
 0.910938E-013
 0.910938E-013
 0.910938E-013
 0.910938E-013
 0.910938E-013
 0.910938E-013
 0.910938E-013
 0.910938E-013
 0.910938E-013
 0.910938E-013
 0.910938E-013
 0.910938E-013
 0.910938E-013
 0.910938E-013
 0.910938E-013
 0.910938E-013
 0.910938E-013
 0.910938E-013
 0.910938E-013
 0.910938E-013
 0.910938E-013
 0.910938E-013
 0.910938E-013
 0.910938E-013
 0.910938E-013
 0.910938E-013
 0.910938E-013
 0.910938E-013
 0.910938E-013
 0.910938E-013
 0.910938E-013
 0.910938E-013
 0.910938E-013
 0.910938E-013
 0.910938E-013
 0.910938E-013
 0.910938E-013
 0.910938E-013
 0.910938E-013
 0.910938E-013
 0.910938E-013
 0.910938E-013
 0.910938E-013
 0.910937E-013
 0.910937E-013
 0.910937E-013
 0.910937E-013
 0.910937E-013
 0.910937E-013
 0.910937E-013
 0.910937E-013
 0.910937E-013
 0.910937E-013
 0.910937E-013
 0.910937E-013
 0.910937E-013
 0.910937E-013
 0.910937E-013
 0.910937E-013
 0.910937E-013
 0.910937E-013
 0.910937E-013
 0.910937E-013
 0.910937E-013
 0.910938E-013
 0.910938E-013
 0.910938E-013
 0.910938E-013
 0.910938E-013
 0.910938E-013
 0.910938E-013
 0.910938E-013
 0.910938E-013
 0.910938E-013
 0.910937E-013
 0.910940E-013
 0.910927E-013
 0.910982E-013
 0.910779E-013
 0.911443E-013
 0.909555E-013
 0.914142E-013
 0.904827E-013
 0.920284E-013
 0.921067E-013
 0.904293E-013
 0.914429E-013
 0.909429E-013
 0.911490E-013
 0.910765E-013
 0.910986E-013
 0.910927E-013
 0.910941E-013
 0.910938E-013
 0.910939E-013
 0.910938E-013
 0.910938E-013
 0.910939E-013
 0.910939E-013
 0.910939E-013
 0.910939E-013
 0.910939E-013
 0.910939E-013
 0.910939E-013
 0.910939E-013
 0.910939E-013
 0.910939E-013
 0.910939E-013
 0.910939E-013
 0.910939E-013
 0.910939E-013
 0.910939E-013
 0.910939E-013
 0.910939E-013
 0.910939E-013
 0.910939E-013
 0.910939E-013
 0.910939E-013
 0.910939E-013
 0.910939E-013
 0.910939E-013
 0.910939E-013
 0.910940E-013
 0.910940E-013
 0.910940E-013
 0.910940E-013
 0.910940E-013
 0.910940E-013
 0.910940E-013
 0.910940E-013
 0.910940E-013
 0.910940E-013
 0.910940E-013