# vtk DataFile Version 3.0
Solution data
ASCII
DATASET STRUCTURED_GRID
DIMENSIONS 128 128 1
POINTS 16384  double
      0.000004      0.000004      0.000000
      0.000012      0.000004      0.000000
      0.000020      0.000004      0.000000
      0.000027      0.000004      0.000000
      0.000035      0.000004      0.000000
      0.000043      0.000004      0.000000
      0.000051      0.000004      0.000000
      0.000059      0.000004      0.000000
      0.000066      0.000004      0.000000
      0.000074      0.000004      0.000000
      0.000082      0.000004      0.000000
      0.000090      0.000004      0.000000
      0.000098      0.000004      0.000000
      0.000105      0.000004      0.000000
      0.000113      0.000004      0.000000
      0.000121      0.000004      0.000000
      0.000129      0.000004      0.000000
      0.000137      0.000004      0.000000
      0.000145      0.000004      0.000000
      0.000152      0.000004      0.000000
      0.000160      0.000004      0.000000
      0.000168      0.000004      0.000000
      0.000176      0.000004      0.000000
      0.000184      0.000004      0.000000
      0.000191      0.000004      0.000000
      0.000199      0.000004      0.000000
      0.000207      0.000004      0.000000
      0.000215      0.000004      0.000000
      0.000223      0.000004      0.000000
      0.000230      0.000004      0.000000
      0.000238      0.000004      0.000000
      0.000246      0.000004      0.000000
      0.000254      0.000004      0.000000
      0.000262      0.000004      0.000000
      0.000270      0.000004      0.000000
      0.000277      0.000004      0.000000
      0.000285      0.000004      0.000000
      0.000293      0.000004      0.000000
      0.000301      0.000004      0.000000
      0.000309      0.000004      0.000000
      0.000316      0.000004      0.000000
      0.000324      0.000004      0.000000
      0.000332      0.000004      0.000000
      0.000340      0.000004      0.000000
      0.000348      0.000004      0.000000
      0.000355      0.000004      0.000000
      0.000363      0.000004      0.000000
      0.000371      0.000004      0.000000
      0.000379      0.000004      0.000000
      0.000387      0.000004      0.000000
      0.000395      0.000004      0.000000
      0.000402      0.000004      0.000000
      0.000410      0.000004      0.000000
      0.000418      0.000004      0.000000
      0.000426      0.000004      0.000000
      0.000434      0.000004      0.000000
      0.000441      0.000004      0.000000
      0.000449      0.000004      0.000000
      0.000457      0.000004      0.000000
      0.000465      0.000004      0.000000
      0.000473      0.000004      0.000000
      0.000480      0.000004      0.000000
      0.000488      0.000004      0.000000
      0.000496      0.000004      0.000000
      0.000504      0.000004      0.000000
      0.000512      0.000004      0.000000
      0.000520      0.000004      0.000000
      0.000527      0.000004      0.000000
      0.000535      0.000004      0.000000
      0.000543      0.000004      0.000000
      0.000551      0.000004      0.000000
      0.000559      0.000004      0.000000
      0.000566      0.000004      0.000000
      0.000574      0.000004      0.000000
      0.000582      0.000004      0.000000
      0.000590      0.000004      0.000000
      0.000598      0.000004      0.000000
      0.000605      0.000004      0.000000
      0.000613      0.000004      0.000000
      0.000621      0.000004      0.000000
      0.000629      0.000004      0.000000
      0.000637      0.000004      0.000000
      0.000645      0.000004      0.000000
      0.000652      0.000004      0.000000
      0.000660      0.000004      0.000000
      0.000668      0.000004      0.000000
      0.000676      0.000004      0.000000
      0.000684      0.000004      0.000000
      0.000691      0.000004      0.000000
      0.000699      0.000004      0.000000
      0.000707      0.000004      0.000000
      0.000715      0.000004      0.000000
      0.000723      0.000004      0.000000
      0.000730      0.000004      0.000000
      0.000738      0.000004      0.000000
      0.000746      0.000004      0.000000
      0.000754      0.000004      0.000000
      0.000762      0.000004      0.000000
      0.000770      0.000004      0.000000
      0.000777      0.000004      0.000000
      0.000785      0.000004      0.000000
      0.000793      0.000004      0.000000
      0.000801      0.000004      0.000000
      0.000809      0.000004      0.000000
      0.000816      0.000004      0.000000
      0.000824      0.000004      0.000000
      0.000832      0.000004      0.000000
      0.000840      0.000004      0.000000
      0.000848      0.000004      0.000000
      0.000855      0.000004      0.000000
      0.000863      0.000004      0.000000
      0.000871      0.000004      0.000000
      0.000879      0.000004      0.000000
      0.000887      0.000004      0.000000
      0.000895      0.000004      0.000000
      0.000902      0.000004      0.000000
      0.000910      0.000004      0.000000
      0.000918      0.000004      0.000000
      0.000926      0.000004      0.000000
      0.000934      0.000004      0.000000
      0.000941      0.000004      0.000000
      0.000949      0.000004      0.000000
      0.000957      0.000004      0.000000
      0.000965      0.000004      0.000000
      0.000973      0.000004      0.000000
      0.000980      0.000004      0.000000
      0.000988      0.000004      0.000000
      0.000996      0.000004      0.000000
      0.000004      0.000012      0.000000
      0.000012      0.000012      0.000000
      0.000020      0.000012      0.000000
      0.000027      0.000012      0.000000
      0.000035      0.000012      0.000000
      0.000043      0.000012      0.000000
      0.000051      0.000012      0.000000
      0.000059      0.000012      0.000000
      0.000066      0.000012      0.000000
      0.000074      0.000012      0.000000
      0.000082      0.000012      0.000000
      0.000090      0.000012      0.000000
      0.000098      0.000012      0.000000
      0.000105      0.000012      0.000000
      0.000113      0.000012      0.000000
      0.000121      0.000012      0.000000
      0.000129      0.000012      0.000000
      0.000137      0.000012      0.000000
      0.000145      0.000012      0.000000
      0.000152      0.000012      0.000000
      0.000160      0.000012      0.000000
      0.000168      0.000012      0.000000
      0.000176      0.000012      0.000000
      0.000184      0.000012      0.000000
      0.000191      0.000012      0.000000
      0.000199      0.000012      0.000000
      0.000207      0.000012      0.000000
      0.000215      0.000012      0.000000
      0.000223      0.000012      0.000000
      0.000230      0.000012      0.000000
      0.000238      0.000012      0.000000
      0.000246      0.000012      0.000000
      0.000254      0.000012      0.000000
      0.000262      0.000012      0.000000
      0.000270      0.000012      0.000000
      0.000277      0.000012      0.000000
      0.000285      0.000012      0.000000
      0.000293      0.000012      0.000000
      0.000301      0.000012      0.000000
      0.000309      0.000012      0.000000
      0.000316      0.000012      0.000000
      0.000324      0.000012      0.000000
      0.000332      0.000012      0.000000
      0.000340      0.000012      0.000000
      0.000348      0.000012      0.000000
      0.000355      0.000012      0.000000
      0.000363      0.000012      0.000000
      0.000371      0.000012      0.000000
      0.000379      0.000012      0.000000
      0.000387      0.000012      0.000000
      0.000395      0.000012      0.000000
      0.000402      0.000012      0.000000
      0.000410      0.000012      0.000000
      0.000418      0.000012      0.000000
      0.000426      0.000012      0.000000
      0.000434      0.000012      0.000000
      0.000441      0.000012      0.000000
      0.000449      0.000012      0.000000
      0.000457      0.000012      0.000000
      0.000465      0.000012      0.000000
      0.000473      0.000012      0.000000
      0.000480      0.000012      0.000000
      0.000488      0.000012      0.000000
      0.000496      0.000012      0.000000
      0.000504      0.000012      0.000000
      0.000512      0.000012      0.000000
      0.000520      0.000012      0.000000
      0.000527      0.000012      0.000000
      0.000535      0.000012      0.000000
      0.000543      0.000012      0.000000
      0.000551      0.000012      0.000000
      0.000559      0.000012      0.000000
      0.000566      0.000012      0.000000
      0.000574      0.000012      0.000000
      0.000582      0.000012      0.000000
      0.000590      0.000012      0.000000
      0.000598      0.000012      0.000000
      0.000605      0.000012      0.000000
      0.000613      0.000012      0.000000
      0.000621      0.000012      0.000000
      0.000629      0.000012      0.000000
      0.000637      0.000012      0.000000
      0.000645      0.000012      0.000000
      0.000652      0.000012      0.000000
      0.000660      0.000012      0.000000
      0.000668      0.000012      0.000000
      0.000676      0.000012      0.000000
      0.000684      0.000012      0.000000
      0.000691      0.000012      0.000000
      0.000699      0.000012      0.000000
      0.000707      0.000012      0.000000
      0.000715      0.000012      0.000000
      0.000723      0.000012      0.000000
      0.000730      0.000012      0.000000
      0.000738      0.000012      0.000000
      0.000746      0.000012      0.000000
      0.000754      0.000012      0.000000
      0.000762      0.000012      0.000000
      0.000770      0.000012      0.000000
      0.000777      0.000012      0.000000
      0.000785      0.000012      0.000000
[...]
POINT_DATA 16384
SCALARS rhoe double
LOOKUP_TABLE default
 0.916209E-013
 0.912613E-013
 0.915375E-013
 0.915643E-013
 0.916731E-013
 0.917585E-013
 0.918493E-013
 0.919387E-013
 0.920281E-013
 0.921171E-013
 0.922059E-013
 0.922944E-013
 0.923825E-013
 0.924704E-013
 0.925580E-013
 0.926451E-013
 0.927319E-013
 0.928183E-013
 0.929043E-013
 0.929898E-013
 0.930748E-013
 0.931593E-013
 0.932432E-013
 0.933265E-013
 0.934091E-013
 0.934911E-013
 0.935722E-013
 0.936526E-013
 0.937321E-013
 0.938107E-013
 0.938883E-013
 0.939649E-013
 0.940403E-013
 0.941145E-013
 0.941875E-013
 0.942592E-013
 0.943294E-013
 0.943981E-013
 0.944652E-013
 0.945307E-013
 0.945944E-013
 0.946563E-013
 0.947163E-013
 0.947743E-013
 0.948302E-013
 0.948839E-013
 0.949354E-013
 0.949845E-013
 0.950312E-013
 0.950754E-013
 0.951171E-013
 0.951561E-013
 0.951924E-013
 0.952259E-013
 0.952566E-013
 0.952844E-013
 0.953092E-013
 0.953310E-013
 0.953498E-013
 0.953655E-013
 0.953781E-013
 0.953876E-013
 0.953940E-013
 0.953971E-013
 0.953971E-013
 0.953940E-013
 0.953876E-013
 0.953782E-013
 0.953655E-013
 0.953498E-013
 0.953310E-013
 0.953092E-013
 0.952844E-013
 0.952566E-013
 0.952259E-013
 0.951924E-013
 0.951561E-013
 0.951171E-013
 0.950754E-013
 0.950312E-013
 0.949845E-013
 0.949354E-013
 0.948839E-013
 0.948302E-013
 0.947743E-013
 0.947163E-013
 0.946563E-013
 0.945944E-013
 0.945307E-013
 0.944652E-013
 0.943981E-013
 0.943294E-013
 0.942592E-013
 0.941875E-013
 0.941146E-013
 0.940403E-013
 0.939649E-013
 0.938883E-013
 0.938107E-013
 0.937322E-013
 0.936526E-013
 0.935723E-013
 0.934911E-013
 0.934091E-013
 0.933265E-013
 0.932432E-013
 0.931593E-013
 0.930748E-013
 0.929898E-013
 0.929043E-013
 0.928183E-013
 0.927319E-013
 0.926451E-013
 0.925580E-013
 0.924704E-013
 0.923826E-013
 0.922944E-013
 0.922059E-013
 0.921171E-013
 0.920281E-013
 0.919387E-013
 0.918493E-013
 0.917585E-013
 0.916731E-013
 0.915643E-013
 0.915375E-013
 0.912614E-013
 0.916209E-013
 0.912613E-013
 0.907924E-013
 0.909460E-013
 0.908140E-013
 0.907870E-013
 0.907283E-013
 0.906780E-013
 0.906259E-013
 0.905744E-013
 0.905230E-013
 0.904717E-013
 0.904206E-013
 0.903696E-013
 0.903189E-013
 0.902683E-013
 0.902180E-013
 0.901679E-013
 0.901180E-013
 0.900683E-013
 0.900190E-013
 0.899699E-013
 0.899211E-013
 0.898726E-013
 0.898245E-013
 0.897768E-013
 0.897294E-013
 0.896825E-013
 0.896361E-013
 0.895901E-013
 0.895447E-013
 0.894999E-013
 0.894556E-013
 0.894120E-013
 0.893691E-013
 0.893269E-013
 0.892855E-013
 0.892449E-013
 0.892052E-013
 0.891663E-013
 0.891285E-013
 0.890916E-013
 0.890558E-013
 0.890211E-013
 0.889875E-013
 0.889552E-013
 0.889241E-013
 0.888943E-013
 0.888659E-013
 0.888389E-013
 0.888133E-013
 0.887891E-013
 0.887666E-013
 0.887456E-013
 0.887261E-013
 0.887084E-013
 0.886923E-013
 0.886779E-013
 0.886653E-013
 0.886544E-013
 0.886453E-013
 0.886380E-013
 0.886325E-013
 0.886288E-013
 0.886270E-013
 0.886270E-013
 0.886288E-013
 0.886325E-013
 0.886380E-013
 0.886453E-013
 0.886544E-013
 0.886653E-013
 0.886779E-013
 0.886923E-013
 0.887084E-013
 0.887262E-013
 0.887456E-013
 0.887666E-013
 0.887892E-013
 0.888133E-013
 0.888389E-013
 0.888659E-013
 0.888944E-013
 0.889242E-013
 0.889552E-013
 0.889876E-013
 0.890211E-013
 0.890558E-013
 0.890916E-013
 0.891285E-013
 0.891664E-013
 0.892052E-013
 0.892449E-013
 0.892855E-013
 0.893270E-013
 0.893692E-013
 0.894121E-013
 0.894557E-013
 0.894999E-013
 0.895448E-013
 0.895902E-013
 0.896361E-013
 0.896826E-013
 0.897295E-013
 0.897768E-013
 0.898245E-013
 0.898727E-013
 0.899211E-013
 0.899699E-013
 0.900190E-013
 0.900684E-013
 0.901180E-013
 0.901679E-013
 0.902180E-013
 0.902684E-013
 0.903189E-013
 0.903697E-013
 0.904206E-013
 0.904717E-013
 0.905230E-013
 0.905744E-013
 0.906260E-013
 0.906780E-013
 0.907284E-013
 0.907870E-013
 0.908140E-013
 0.909460E-013
 0.907925E-013
 0.912614E-013
 0.915375E-013
 0.909460E-013
 0.912642E-013
 0.911732E-013
 0.912316E-013
 0.912446E-013
 0.912692E-013
 0.912912E-013
 0.913136E-013
 0.913358E-013
 0.913580E-013
 0.913801E-013
 0.914021E-013
 0.914240E-013
 0.914458E-013
 0.914676E-013
 0.914893E-013
 0.915108E-013
 0.915322E-013
 0.915536E-013
 0.915748E-013
 0.915958E-013
 0.916168E-013
 0.916375E-013
 0.916581E-013
 0.916786E-013
 0.916988E-013
 0.917189E-013
 0.917387E-013
 0.917583E-013
 0.917777E-013
 0.917968E-013
 0.918156E-013
 0.918341E-013
 0.918523E-013
 0.918702E-013
 0.918877E-013
 0.919048E-013
 0.919216E-013
 0.919379E-013
 0.919538E-013
 0.919692E-013
 0.919842E-013
 0.919987E-013
 0.920126E-013
 0.920260E-013
 0.920389E-013
 0.920511E-013
 0.920628E-013
 0.920738E-013
 0.920842E-013
 0.920940E-013
 0.921030E-013
 0.921114E-013
 0.921191E-013
 0.921260E-013
 0.921322E-013
 0.921377E-013
 0.921423E-013
 0.921463E-013
 0.921494E-013
 0.921518E-013
 0.921534E-013
 0.921542E-013
 0.921542E-013
 0.921534E-013
 0.921518E-013
 0.921494E-013
 0.921463E-013
 0.921423E-013
 0.921376E-013
 0.921322E-013
 0.921260E-013
 0.921191E-013
 0.921114E-013
 0.921030E-013
 0.920940E-013
 0.920842E-013
 0.920738E-013
 0.920628E-013
 0.920511E-013
 0.920389E-013
 0.920260E-013
 0.920126E-013
 0.919986E-013
 0.919842E-013
 0.919692E-013
 0.919538E-013
 0.919379E-013
 0.919215E-013
 0.919048E-013
 0.918876E-013
 0.918701E-013
 0.918522E-013
 0.918340E-013
 0.918155E-013
 0.917967E-013
 0.917776E-013
 0.917583E-013
 0.917387E-013
 0.917188E-013
 0.916988E-013
 0.916785E-013
 0.916581E-013
 0.916375E-013
 0.916167E-013
 0.915958E-013
 0.915747E-013
 0.915535E-013
 0.915322E-013
 0.915108E-013
 0.914892E-013
 0.914676E-013
 0.914458E-013
 0.914240E-013
 0.914020E-013
 0.913800E-013
 0.913579E-013
 0.913358E-013
 0.913135E-013
 0.912911E-013
 0.912692E-013
 0.912446E-013
 0.912316E-013
 0.911732E-013
 0.912642E-013
 0.909460E-013
 0.915375E-013
 0.915643E-013
 0.908140E-013
 0.911732E-013
 0.910224E-013
 0.910602E-013
 0.910403E-013
 0.910355E-013
 0.910273E-013
 0.910197E-013
 0.910121E-013
 0.910045E-013
 0.909969E-013
 0.909894E-013
 0.909819E-013
 0.909744E-013
 0.909670E-013
 0.909596E-013
 0.909522E-013
 0.909449E-013
 0.909376E-013
 0.909303E-013
 0.909231E-013
 0.909159E-013
 0.909088E-013
 0.909018E-013
 0.908948E-013
 0.908879E-013
 0.908810E-013
 0.908742E-013
 0.908675E-013
 0.908609E-013
 0.908544E-013
 0.908479E-013
 0.908416E-013
 0.908354E-013
 0.908292E-013
 0.908232E-013
 0.908174E-013
 0.908117E-013
 0.908061E-013
 0.908006E-013
 0.907953E-013
 0.907902E-013
 0.907853E-013
 0.907805E-013
 0.907759E-013
 0.907715E-013
 0.907673E-013
 0.907633E-013
 0.907596E-013
 0.907560E-013
 0.907527E-013
 0.907496E-013
 0.907467E-013
 0.907441E-013
 0.907417E-013
 0.907396E-013
 0.907377E-013
 0.907361E-013
 0.907348E-013
 0.907337E-013
 0.907329E-013
 0.907324E-013
 0.907321E-013
 0.907321E-013
 0.907324E-013
 0.907329E-013
 0.907337E-013
 0.907348E-013
 0.907361E-013
 0.907377E-013
 0.907396E-013
 0.907417E-013
 0.907441E-013
 0.907467E-013
 0.907496E-013
 0.907527E-013
 0.907560E-013
 0.907596E-013
 0.907633E-013
 0.907673E-013
 0.907715E-013
 0.907759E-013
 0.907805E-013
 0.907853E-013
 0.907902E-013
 0.907954E-013
 0.908006E-013
 0.908061E-013
 0.908117E-013
 0.908174E-013
 0.908233E-013
 0.908293E-013
 0.908354E-013
 0.908416E-013
 0.908479E-013
 0.908544E-013
 0.908609E-013
 0.908675E-013
 0.908742E-013
 0.908810E-013
 0.908879E-013
 0.908948E-013
 0.909018E-013
 0.909089E-013
 0.909160E-013
 0.909231E-013
 0.909303E-013
 0.909376E-013
 0.909449E-013
 0.909522E-013
 0.909596E-013
 0.909670E-013
 0.909744E-013
 0.909819E-013
 0.909894E-013
 0.909970E-013
 0.910045E-013
 0.910121E-013
 0.910197E-013
 0.910273E-013
 0.910355E-013
 0.910404E-013
 0.910602E-013
 0.910224E-013
 0.911732E-013
 0.908141E-013
 0.915643E-013
 0.916731E-013
 0.907870E-013
 0.912316E-013
 0.910602E-013
 0.911179E-013
 0.911052E-013
 0.911108E-013
 0.911123E-013
 0.911146E-013
 0.911167E-013
 0.911188E-013
 0.911210E-013
 0.911231E-013
 0.911252E-013
 0.911273E-013
 0.911294E-013
 0.911315E-013
 0.911336E-013
 0.911356E-013
 0.911377E-013
 0.911398E-013
 0.911418E-013
 0.911438E-013
 0.911458E-013
 0.911478E-013
 0.911498E-013
 0.911517E-013
 0.911537E-013
 0.911556E-013
 0.911575E-013
 0.911593E-013
 0.911612E-013
 0.911630E-013
 0.911648E-013
 0.911666E-013
 0.911683E-013
 0.911700E-013
 0.911716E-013
 0.911732E-013
 0.911748E-013
 0.911764E-013
 0.911779E-013
 0.911793E-013
 0.911807E-013
 0.911820E-013
 0.911833E-013
 0.911846E-013
 0.911858E-013
 0.911869E-013
 0.911880E-013
 0.911890E-013
 0.911899E-013
 0.911908E-013
 0.911916E-013
 0.911923E-013
 0.911930E-013
 0.911936E-013
 0.911941E-013
 0.911946E-013
 0.911950E-013
 0.911953E-013
 0.911955E-013
 0.911957E-013
 0.911957E-013
 0.911957E-013
 0.911957E-013
 0.911955E-013
 0.911953E-013
 0.911950E-013
 0.911946E-013
 0.911941E-013
 0.911936E-013
 0.911930E-013
 0.911923E-013
 0.911916E-013
 0.911908E-013
 0.911899E-013
 0.911890E-013
 0.911880E-013
 0.911869E-013
 0.911858E-013
 0.911846E-013
 0.911833E-013
 0.911820E-013
 0.911807E-013
 0.911793E-013
 0.911778E-013
 0.911764E-013
 0.911748E-013
 0.911732E-013
 0.911716E-013
 0.911700E-013
 0.911683E-013
 0.911665E-013
 0.911648E-013
 0.911630E-013
 0.911612E-013
 0.911593E-013
 0.911575E-013
 0.911556E-013
 0.911537E-013
 0.911517E-013
 0.911498E-013
 0.911478E-013
 0.911458E-013
 0.911438E-013
 0.911418E-013
 0.911397E-013
 0.911377E-013
 0.911356E-013
 0.911336E-013
 0.911315E-013
 0.911294E-013
 0.911273E-013
 0.911252E-013
 0.911231E-013
 0.911210E-013
 0.911188E-013
 0.911167E-013
 0.911146E-013
 0.911123E-013
 0.911108E-013
 0.911052E-013
 0.911179E-013
 0.910603E-013
 0.912316E-013
 0.907870E-013
 0.916731E-013
 0.917585E-013
 0.907283E-013
 0.912446E-013
 0.910403E-013
 0.911052E-013
 0.910871E-013
 0.910906E-013
 0.910893E-013
 0.910889E-013
 0.910884E-013
 0.910879E-013
 0.910874E-013
 0.910869E-013
 0.910864E-013
 0.910859E-013
 0.910854E-013
 0.910849E-013
 0.910844E-013
 0.910839E-013
 0.910834E-013
 0.910829E-013
 0.910824E-013
 0.910819E-013
 0.910814E-013
 0.910810E-013
 0.910805E-013
 0.910800E-013
 0.910796E-013
 0.910791E-013
 0.910787E-013
 0.910782E-013
 0.910778E-013
 0.910774E-013
 0.910769E-013
 0.910765E-013
 0.910761E-013
 0.910757E-013
 0.910753E-013
 0.910749E-013
 0.910746E-013
 0.910742E-013
 0.910738E-013
 0.910735E-013
 0.910732E-013
 0.910729E-013
 0.910725E-013
 0.910723E-013
 0.910720E-013
 0.910717E-013
 0.910715E-013
 0.910712E-013
 0.910710E-013
 0.910708E-013
 0.910706E-013
 0.910704E-013
 0.910703E-013
 0.910701E-013
 0.910700E-013
 0.910699E-013
 0.910698E-013
 0.910698E-013
 0.910697E-013
 0.910697E-013
 0.910696E-013
 0.910696E-013
 0.910697E-013
 0.910697E-013
 0.910698E-013
 0.910698E-013
 0.910699E-013
 0.910700E-013
 0.910701E-013
 0.910703E-013
 0.910704E-013
 0.910706E-013
 0.910708E-013
 0.910710E-013
 0.910712E-013
 0.910715E-013
 0.910717E-013
 0.910720E-013
 0.910723E-013
 0.910726E-013
 0.910729E-013
 0.910732E-013
 0.910735E-013
 0.910738E-013
 0.910742E-013
 0.910746E-013
 0.910749E-013
 0.910753E-013
 0.910757E-013
 0.910761E-013
 0.910765E-013
 0.910769E-013
 0.910774E-013
 0.910778E-013
 0.910782E-013
 0.910787E-013
 0.910791E-013
 0.910796E-013
 0.910800E-013
 0.910805E-013
 0.910810E-013
 0.910814E-013
 0.910819E-013
 0.910824E-013
 0.910829E-013
 0.910834E-013
 0.910839E-013
 0.910844E-013
 0.910849E-013
 0.910854E-013
 0.910859E-013
 0.910864E-013
 0.910869E-013
 0.910874E-013
 0.910879E-013
 0.910884E-013
 0.910889E-013
 0.910893E-013
 0.910906E-013
 0.910871E-013
 0.911052E-013
 0.910404E-013
 0.912446E-013
 0.907284E-013
 0.917585E-013
 0.918493E-013
 0.906780E-013
 0.912692E-013
 0.910355E-013
 0.911108E-013
 0.910906E-013
 0.910954E-013
 0.910946E-013
 0.910949E-013
 0.910950E-013
 0.910951E-013
 0.910952E-013
 0.910953E-013
 0.910954E-013
 0.910955E-013
 0.910956E-013
 0.910957E-013
 0.910958E-013
 0.910959E-013
 0.910960E-013
 0.910961E-013
 0.910962E-013
 0.910963E-013
 0.910964E-013
 0.910965E-013
 0.910966E-013
 0.910967E-013
 0.910968E-013
 0.910969E-013
 0.910970E-013
 0.910971E-013
 0.910972E-013
 0.910973E-013
 0.910974E-013
 0.910975E-013
 0.910975E-013
 0.910976E-013
 0.910977E-013
 0.910978E-013
 0.910979E-013
 0.910980E-013
 0.910980E-013
 0.910981E-013
 0.910982E-013
 0.910983E-013
 0.910983E-013
 0.910984E-013
 0.910985E-013
 0.910985E-013
 0.910986E-013
 0.910986E-013
 0.910987E-013
 0.910987E-013
 0.910988E-013
 0.910988E-013
 0.910989E-013
 0.910989E-013
 0.910989E-013
 0.910989E-013
 0.910990E-013
 0.910990E-013
 0.910990E-013
 0.910990E-013
 0.910990E-013
 0.910990E-013
 0.910990E-013
 0.910990E-013
 0.910990E-013
 0.910990E-013
 0.910989E-013
 0.910989E-013
 0.910989E-013
 0.910989E-013
 0.910988E-013
 0.910988E-013
 0.910987E-013
 0.910987E-013
 0.910986E-013
 0.910986E-013
 0.910985E-013
 0.910985E-013
 0.910984E-013
 0.910983E-013
 0.910983E-013
 0.910982E-013
 0.910981E-013
 0.910980E-013
 0.910980E-013
 0.910979E-013
 0.910978E-013
 0.910977E-013
 0.910976E-013
 0.910975E-013
 0.910975E-013
 0.910974E-013
 0.910973E-013
 0.910972E-013
 0.910971E-013
 0.910970E-013
 0.910969E-013
 0.910968E-013
 0.910967E-013
 0.910966E-013
 0.910965E-013
 0.910964E-013
 0.910963E-013
 0.910962E-013
 0.910961E-013
 0.910960E-013
 0.910959E-013
 0.910958E-013
 0.910957E-013
 0.910956E-013
 0.910955E-013
 0.910954E-013
 0.910953E-013
 0.910952E-013
 0.910951E-013
 0.910950E-013
 0.910949E-013
 0.910946E-013
 0.910954E-013
 0.910906E-013
 0.911108E-013
 0.910355E-013
 0.912692E-013
 0.906780E-013
 0.918493E-013
 0.919387E-013
 0.906259E-013
 0.912912E-013
 0.910273E-013
 0.911123E-013
 0.910893E-013
 0.910946E-013
 0.910935E-013
 0.910937E-013
 0.910936E-013
 0.910936E-013
 0.910936E-013
 0.910936E-013
 0.910936E-013
 0.910935E-013
 0.910935E-013
 0.910935E-013
 0.910935E-013
 0.910935E-013
 0.910934E-013
 0.910934E-013
 0.910934E-013
 0.910934E-013
 0.910934E-013
 0.910934E-013
 0.910933E-013
 0.910933E-013
 0.910933E-013
 0.910933E-013
 0.910933E-013
 0.910933E-013
 0.910933E-013
 0.910932E-013
 0.910932E-013
 0.910932E-013
 0.910932E-013
 0.910932E-013
 0.910932E-013
 0.910932E-013
 0.910932E-013
 0.910932E-013
 0.910931E-013
 0.910931E-013
 0.910931E-013
 0.910931E-013
 0.910931E-013
 0.910931E-013
 0.910931E-013
 0.910931E-013
 0.910931E-013
 0.910931E-013
 0.910931E-013
 0.910931E-013
 0.910931E-013
 0.910931E-013
 0.910931E-013
 0.910931E-013
 0.910931E-013
 0.910931E-013
 0.910931E-013
 0.910931E-013
 0.910931E-013
 0.910931E-013
 0.910931E-013
 0.910931E-013
 0.910931E-013
 0.910931E-013
 0.910931E-013
 0.910931E-013
 0.910931E-013
 0.910931E-013
 0.910931E-013
 0.910931E-013
 0.910931E-013
 0.910931E-013
 0.910931E-013
 0.910931E-013
 0.910931E-013
 0.910931E-013
 0.910931E-013
 0.910931E-013
 0.910931E-013
 0.910931E-013
 0.910931E-013
 0.910931E-013
 0.910931E-013
 0.910931E-013
 0.910932E-013
 0.910932E-013
 0.910932E-013
 0.910932E-013
 0.910932E-013
 0.910932E-013
 0.910932E-013
 0.910932E-013
 0.910932E-013
 0.910933E-013
 0.910933E-013
 0.910933E-013
 0.910933E-013
 0.910933E-013
 0.910933E-013
 0.910933E-013
 0.910934E-013
 0.910934E-013
 0.910934E-013
 0.910934E-013
 0.910934E-013
 0.910934E-013
 0.910935E-013
 0.910935E-013
 0.910935E-013
 0.910935E-013
 0.910935E-013
 0.910936E-013
 0.910936E-013
 0.910936E-013
 0.910936E-013
 0.910936E-013
 0.910937E-013
 0.910935E-013
 0.910946E-013
 0.910893E-013
 0.911123E-013
 0.910273E-013
 0.912911E-013
 0.906260E-013
 0.919387E-013
 0.920281E-013
 0.905744E-013
 0.913136E-013
 0.910197E-013
 0.911146E-013
 0.910889E-013
 0.910949E-013
 0.910937E-013
 0.910939E-013
 0.910939E-013
 0.910939E-013
 0.910939E-013
 0.910939E-013
 0.910939E-013
 0.910939E-013
 0.910939E-013
 0.910939E-013
 0.910939E-013
 0.910939E-013
 0.910939E-013
 0.910939E-013
 0.910939E-013
 0.910939E-013
 0.910939E-013
 0.910939E-013
 0.910939E-013
 0.910939E-013
 0.910939E-013
 0.910939E-013
 0.910940E-013
 0.910940E-013
 0.910940E-013
 0.910940E-013
 0.910940E-013
 0.910940E-013
 0.910940E-013
 0.910940E-013
 0.910940E-013
 0.910940E-013
 0.910940E-013
 0.910940E-013
 0.910940E-013
 0.910941E-013
 0.910941E-013
 0.910941E-013
 0.910941E-013
 0.910941E-013
 0.910941E-013
 0.910941E-013
 0.910941E-013
 0.910941E-013
 0.910941E-013
 0.910941E-013
 0.910941E-013
 0.910941E-013
 0.910942E-013
 0.910942E-013
 0.910942E-013
 0.910942E-013
 0.910942E-013
 0.910942E-013
 0.910942E-013
 0.910942E-013
 0.910942E-013
 0.910942E-013
 0.910942E-013
 0.910942E-013
 0.910942E-013
 0.910942E-013
 0.910942E-013
 0.910942E-013
 0.910942E-013
 0.910942E-013
 0.910942E-013
 0.910941E-013
 0.910941E-013
 0.910941E-013
 0.910941E-013
 0.910941E-013
 0.910941E-013
 0.910941E-013
 0.910941E-013
 0.910941E-013
 0.910941E-013
 0.910941E-013
 0.910941E-013
 0.910940E-013
 0.910940E-013
 0.910940E-013
 0.910940E-013
 0.910940E-013
 0.910940E-013
 0.910940E-013
 0.910940E-013
 0.910940E-013
 0.910940E-013
 0.910940E-013
 0.910940E-013
 0.910940E-013
 0.910939E-013
 0.910939E-013
 0.910939E-013
 0.910939E-013
 0.910939E-013
 0.910939E-013
 0.910939E-013
 0.910939E-013
 0.910939E-013
 0.910939E-013
 0.910939E-013
 0.910939E-013
 0.910939E-013
 0.910939E-013
 0.910939E-013
 0.910939E-013
 0.910939E-013
 0.910939E-013
 0.910939E-013
 0.910939E-013
 0.910939E-013
 0.910937E-013
 0.910949E-013
 0.910889E-013
 0.911146E-013
 0.910197E-013
 0.913135E-013
 0.905744E-013
 0.920281E-013
 0.921171E-013
 0.905230E-013
 0.913358E-013
 0.910121E-013
 0.911167E-013
 0.910884E-013
 0.910950E-013
 0.910936E-013
 0.910939E-013
 0.910938E-013
 0.910938E-013
 0.910938E-013
 0.910938E-013
 0.910938E-013
 0.910938E-013
 0.910938E-013
 0.910938E-013
 0.910938E-013
 0.910938E-013
 0.910938E-013
 0.910938E-013
 0.910938E-013
 0.910938E-013
 0.910938E-013
 0.910938E-013
 0.910938E-013
 0.910938E-013
 0.910938E-013
 0.910938E-013
 0.910939E-013
 0.910939E-013
 0.910939E-013
 0.910939E-013
 0.910939E-013
 0.910939E-013
 0.910939E-013
 0.910939E-013
 0.910939E-013
 0.910939E-013
 0.910939E-013
 0.910939E-013
 0.910939E-013
 0.910939E-013
 0.910939E-013
 0.910939E-013
 0.910939E-013
 0.910940E-013
 0.910940E-013
 0.910940E-013
 0.910940E-013
 0.910940E-013
 0.910940E-013
 0.910940E-013
 0.910940E-013
 0.910940E-013
 0.910940E-013
 0.910940E-013
 0.910940E-013
 0.910940E-013
 0.910940E-013
 0.910940E-013
 0.910940E-013
 0.910940E-013
 0.910940E-013
 0.910940E-013
 0.910940E-013
 0.910940E-013
 0.910940E-013
 0.910940E-013
 0.910940E-013
 0.910940E-013
 0.910940E-013
 0.910940E-013
 0.910940E-013
 0.910940E-013
 0.910940E-013
 0.910940E-013
 0.910940E-013
 0.910940E-013
 0.910940E-013
 0.910940E-013
 0.910940E-013
 0.910940E-013
 0.910939E-013
 0.910939E-013
 0.910939E-013
 0.910939E-013
 0.910939E-013
 0.910939E-013
 0.910939E-013
 0.910939E-013
 0.910939E-013
 0.910939E-013
 0.910939E-013
 0.910939E-013
 0.910939E-013
 0.910939E-013
 0.910939E-013
 0.910939E-013
 0.910938E-013
 0.910938E-013
 0.910938E-013
 0.910938E-013
 0.910938E-013
 0.910938E-013
 0.910938E-013
 0.910938E-013
 0.910938E-013
 0.910938E-013
 0.910938E-013
 0.910938E-013
 0.910938E-013
 0.910938E-013
 0.910938E-013
 0.910938E-013
 0.910938E-013
 0.910938E-013
 0.910938E-013
 0.910938E-013
 0.910939E-013
 0.910936E-013
 0.910950E-013
 0.910884E-013
 0.911167E-013
 0.910121E-013
 0.913358E-013
 0.905230E-013
 0.921171E-013
 0.922059E-013
 0.904717E-013
 0.913580E-013
 0.910045E-013
 0.911188E-013
 0.910879E-013
 0.910951E-013
 0.910936E-013
 0.910939E-013
 0.910938E-013
 0.910938E-013
 0.910938E-013
 0.910938E-013
 0.910938E-013
 0.910938E-013
 0.910938E-013
 0.910938E-013
 0.910938E-013
 0.910938E-013
 0.910938E-013
 0.910938E-013
 0.910938E-013
 0.910938E-013
 0.910939E-013
 0.910939E-013
 0.910939E-013
 0.910939E-013
 0.910939E-013
 0.910939E-013
 0.910939E-013
 0.910939E-013
 0.910939E-013
 0.910939E-013
 0.910939E-013
 0.910939E-013
 0.910939E-013
 0.910939E-013
 0.910939E-013
 0.910939E-013
 0.910939E-013
 0.910939E-013
 0.910940E-013
 0.910940E-013
 0.910940E-013
 0.910940E-013
 0.910940E-013
 0.910940E-013
 0.910940E-013
 0.910940E-013