# vtk DataFile Version 3.0
Solution data
ASCII
DATASET STRUCTURED_GRID
DIMENSIONS 128 128 1
POINTS 16384  double
      0.000004      0.000004      0.000000
      0.000012      0.000004      0.000000
      0.000020      0.000004      0.000000
      0.000027      0.000004      0.000000
      0.000035      0.000004      0.000000
      0.000043      0.000004      0.000000
      0.000051      0.000004      0.000000
      0.000059      0.000004      0.000000
      0.000066      0.000004      0.000000
      0.000074      0.000004      0.000000
      0.000082      0.000004      0.000000
      0.000090      0.000004      0.000000
      0.000098      0.000004      0.000000
      0.000105      0.000004      0.000000
      0.000113      0.000004      0.000000
      0.000121      0.000004      0.000000
      0.000129      0.000004      0.000000
      0.000137      0.000004      0.000000
      0.000145      0.000004      0.000000
      0.000152      0.000004      0.000000
      0.000160      0.000004      0.000000
      0.000168      0.000004      0.000000
      0.000176      0.000004      0.000000
      0.000184      0.000004      0.000000
      0.000191      0.000004      0.000000
      0.000199      0.000004      0.000000
      0.000207      0.000004      0.000000
      0.000215      0.000004      0.000000
      0.000223      0.000004      0.000000
      0.000230      0.000004      0.000000
      0.000238      0.000004      0.000000
      0.000246      0.000004      0.000000
      0.000254      0.000004      0.000000
      0.000262      0.000004      0.000000
      0.000270      0.000004      0.000000
      0.000277      0.000004      0.000000
      0.000285      0.000004      0.000000
      0.000293      0.000004      0.000000
      0.000301      0.000004      0.000000
      0.000309      0.000004      0.000000
      0.000316      0.000004      0.000000
      0.000324      0.000004      0.000000
      0.000332      0.000004      0.000000
      0.000340      0.000004      0.000000
      0.000348      0.000004      0.000000
      0.000355      0.000004      0.000000
      0.000363      0.000004      0.000000
      0.000371      0.000004      0.000000
      0.000379      0.000004      0.000000
      0.000387      0.000004      0.000000
      0.000395      0.000004      0.000000
      0.000402      0.000004      0.000000
      0.000410      0.000004      0.000000
      0.000418      0.000004      0.000000
      0.000426      0.000004      0.000000
      0.000434      0.000004      0.000000
      0.000441      0.000004      0.000000
      0.000449      0.000004      0.000000
      0.000457      0.000004      0.000000
      0.000465      0.000004      0.000000
      0.000473      0.000004      0.000000
      0.000480      0.000004      0.000000
      0.000488      0.000004      0.000000
      0.000496      0.000004      0.000000
      0.000504      0.000004      0.000000
      0.000512      0.000004      0.000000
      0.000520      0.000004      0.000000
      0.000527      0.000004      0.000000
      0.000535      0.000004      0.000000
      0.000543      0.000004      0.000000
      0.000551      0.000004      0.000000
      0.000559      0.000004      0.000000
      0.000566      0.000004      0.000000
      0.000574      0.000004      0.000000
      0.000582      0.000004      0.000000
      0.000590      0.000004      0.000000
      0.000598      0.000004      0.000000
      0.000605      0.000004      0.000000
      0.000613      0.000004      0.000000
      0.000621      0.000004      0.000000
      0.000629      0.000004      0.000000
      0.000637      0.000004      0.000000
      0.000645      0.000004      0.000000
      0.000652      0.000004      0.000000
      0.000660      0.000004      0.000000
      0.000668      0.000004      0.000000
      0.000676      0.000004      0.000000
      0.000684      0.000004      0.000000
      0.000691      0.000004      0.000000
      0.000699      0.000004      0.000000
      0.000707      0.000004      0.000000
      0.000715      0.000004      0.000000
      0.000723      0.000004      0.000000
      0.000730      0.000004      0.000000
      0.000738      0.000004      0.000000
      0.000746      0.000004      0.000000
      0.000754      0.000004      0.000000
      0.000762      0.000004      0.000000
      0.000770      0.000004      0.000000
      0.000777      0.000004      0.000000
      0.000785      0.000004      0.000000
      0.000793      0.000004      0.000000
      0.000801      0.000004      0.000000
      0.000809      0.000004      0.000000
      0.000816      0.000004      0.000000
      0.000824      0.000004      0.000000
      0.000832      0.000004      0.000000
      0.000840      0.000004      0.000000
      0.000848      0.000004      0.000000
      0.000855      0.000004      0.000000
      0.000863      0.000004      0.000000
      0.000871      0.000004      0.000000
      0.000879      0.000004      0.000000
      0.000887      0.000004      0.000000
      0.000895      0.000004      0.000000
      0.000902      0.000004      0.000000
      0.000910      0.000004      0.000000
      0.000918      0.000004      0.000000
      0.000926      0.000004      0.000000
      0.000934      0.000004      0.000000
      0.000941      0.000004      0.000000
      0.000949      0.000004      0.000000
      0.000957      0.000004      0.000000
      0.000965      0.000004      0.000000
      0.000973      0.000004      0.000000
      0.000980      0.000004      0.000000
      0.000988      0.000004      0.000000
      0.000996      0.000004      0.000000
      0.000004      0.000012      0.000000
      0.000012      0.000012      0.000000
      0.000020      0.000012      0.000000
      0.000027      0.000012      0.000000
      0.000035      0.000012      0.000000
      0.000043      0.000012      0.000000
      0.000051      0.000012      0.000000
      0.000059      0.000012      0.000000
      0.000066      0.000012      0.000000
      0.000074      0.000012      0.000000
      0.000082      0.000012      0.000000
      0.000090      0.000012      0.000000
      0.000098      0.000012      0.000000
      0.000105      0.000012      0.000000
      0.000113      0.000012      0.000000
      0.000121      0.000012      0.000000
      0.000129      0.000012      0.000000
      0.000137      0.000012      0.000000
      0.000145      0.000012      0.000000
      0.000152      0.000012      0.000000
      0.000160      0.000012      0.000000
      0.000168      0.000012      0.000000
      0.000176      0.000012      0.000000
      0.000184      0.000012      0.000000
      0.000191      0.000012      0.000000
      0.000199      0.000012      0.000000
      0.000207      0.000012      0.000000
      0.000215      0.000012      0.000000
      0.000223      0.000012      0.000000
      0.000230      0.000012      0.000000
      0.000238      0.000012      0.000000
      0.000246      0.000012      0.000000
      0.000254      0.000012      0.000000
      0.000262      0.000012      0.000000
      0.000270      0.000012      0.000000
      0.000277      0.000012      0.000000
      0.000285      0.000012      0.000000
      0.000293      0.000012      0.000000
      0.000301      0.000012      0.000000
      0.000309      0.000012      0.000000
      0.000316      0.000012      0.000000
      0.000324      0.000012      0.000000
      0.000332      0.000012      0.000000
      0.000340      0.000012      0.000000
      0.000348      0.000012      0.000000
      0.000355      0.000012      0.000000
      0.000363      0.000012      0.000000
      0.000371      0.000012      0.000000
      0.000379      0.000012      0.000000
      0.000387      0.000012      0.000000
      0.000395      0.000012      0.000000
      0.000402      0.000012      0.000000
      0.000410      0.000012      0.000000
      0.000418      0.000012      0.000000
      0.000426      0.000012      0.000000
      0.000434      0.000012      0.000000
      0.000441      0.000012      0.000000
      0.000449      0.000012      0.000000
      0.000457      0.000012      0.000000
      0.000465      0.000012      0.000000
      0.000473      0.000012      0.000000
      0.000480      0.000012      0.000000
      0.000488      0.000012      0.000000
      0.000496      0.000012      0.000000
      0.000504      0.000012      0.000000
      0.000512      0.000012      0.000000
      0.000520      0.000012      0.000000
      0.000527      0.000012      0.000000
      0.000535      0.000012      0.000000
      0.000543      0.000012      0.000000
      0.000551      0.000012      0.000000
      0.000559      0.000012      0.000000
      0.000566      0.000012      0.000000
      0.000574      0.000012      0.000000
      0.000582      0.000012      0.000000
      0.000590      0.000012      0.000000
      0.000598      0.000012      0.000000
      0.000605      0.000012      0.000000
      0.000613      0.000012      0.000000
      0.000621      0.000012      0.000000
      0.000629      0.000012      0.000000
      0.000637      0.000012      0.000000
      0.000645      0.000012      0.000000
      0.000652      0.000012      0.000000
      0.000660      0.000012      0.000000
      0.000668      0.000012      0.000000
      0.000676      0.000012      0.000000
      0.000684      0.000012      0.000000
      0.000691      0.000012      0.000000
      0.000699      0.000012      0.000000
      0.000707      0.000012      0.000000
      0.000715      0.000012      0.000000
      0.000723      0.000012      0.000000
      0.000730      0.000012      0.000000
      0.000738      0.000012      0.000000
      0.000746      0.000012      0.000000
      0.000754      0.000012      0.000000
      0.000762      0.000012      0.000000
      0.000770      0.000012      0.000000
      0.000777      0.000012      0.000000
      0.000785      0.000012      0.000000
[...]
POINT_DATA 16384
SCALARS rhoe double
LOOKUP_TABLE default
 0.912876E-013
 0.912538E-013
 0.913419E-013
 0.914168E-013
 0.914927E-013
 0.915684E-013
 0.916440E-013
 0.917195E-013
 0.917949E-013
 0.918702E-013
 0.919454E-013
 0.920205E-013
 0.920954E-013
 0.921702E-013
 0.922448E-013
 0.923193E-013
 0.923936E-013
 0.924677E-013
 0.925415E-013
 0.926151E-013
 0.926884E-013
 0.927613E-013
 0.928339E-013
 0.929062E-013
 0.929780E-013
 0.930493E-013
 0.931201E-013
 0.931903E-013
 0.932599E-013
 0.933288E-013
 0.933970E-013
 0.934644E-013
 0.935310E-013
 0.935966E-013
 0.936612E-013
 0.937247E-013
 0.937871E-013
 0.938483E-013
 0.939082E-013
 0.939667E-013
 0.940237E-013
 0.940792E-013
 0.941330E-013
 0.941852E-013
 0.942355E-013
 0.942840E-013
 0.943305E-013
 0.943749E-013
 0.944172E-013
 0.944573E-013
 0.944951E-013
 0.945306E-013
 0.945636E-013
 0.945941E-013
 0.946221E-013
 0.946474E-013
 0.946701E-013
 0.946900E-013
 0.947072E-013
 0.947216E-013
 0.947331E-013
 0.947418E-013
 0.947476E-013
 0.947505E-013
 0.947505E-013
 0.947476E-013
 0.947418E-013
 0.947331E-013
 0.947215E-013
 0.947071E-013
 0.946899E-013
 0.946700E-013
 0.946473E-013
 0.946219E-013
 0.945939E-013
 0.945634E-013
 0.945304E-013
 0.944949E-013
 0.944571E-013
 0.944170E-013
 0.943746E-013
 0.943302E-013
 0.942837E-013
 0.942352E-013
 0.941849E-013
 0.941327E-013
 0.940788E-013
 0.940233E-013
 0.939663E-013
 0.939078E-013
 0.938479E-013
 0.937867E-013
 0.937243E-013
 0.936608E-013
 0.935962E-013
 0.935306E-013
 0.934640E-013
 0.933966E-013
 0.933284E-013
 0.932595E-013
 0.931899E-013
 0.931197E-013
 0.930489E-013
 0.929776E-013
 0.929058E-013
 0.928336E-013
 0.927610E-013
 0.926880E-013
 0.926147E-013
 0.925412E-013
 0.924674E-013
 0.923933E-013
 0.923190E-013
 0.922446E-013
 0.921699E-013
 0.920951E-013
 0.920202E-013
 0.919451E-013
 0.918700E-013
 0.917947E-013
 0.917193E-013
 0.916438E-013
 0.915682E-013
 0.914926E-013
 0.914167E-013
 0.913419E-013
 0.912537E-013
 0.912876E-013
 0.912538E-013
 0.910528E-013
 0.910655E-013
 0.910543E-013
 0.910450E-013
 0.910356E-013
 0.910262E-013
 0.910169E-013
 0.910075E-013
 0.909982E-013
 0.909889E-013
 0.909796E-013
 0.909704E-013
 0.909612E-013
 0.909520E-013
 0.909428E-013
 0.909336E-013
 0.909245E-013
 0.909154E-013
 0.909064E-013
 0.908974E-013
 0.908884E-013
 0.908795E-013
 0.908707E-013
 0.908619E-013
 0.908532E-013
 0.908445E-013
 0.908360E-013
 0.908275E-013
 0.908191E-013
 0.908108E-013
 0.908026E-013
 0.907945E-013
 0.907865E-013
 0.907787E-013
 0.907710E-013
 0.907635E-013
 0.907561E-013
 0.907488E-013
 0.907418E-013
 0.907349E-013
 0.907282E-013
 0.907217E-013
 0.907155E-013
 0.907094E-013
 0.907036E-013
 0.906980E-013
 0.906927E-013
 0.906877E-013
 0.906829E-013
 0.906783E-013
 0.906741E-013
 0.906702E-013
 0.906665E-013
 0.906632E-013
 0.906602E-013
 0.906575E-013
 0.906551E-013
 0.906531E-013
 0.906514E-013
 0.906500E-013
 0.906490E-013
 0.906483E-013
 0.906479E-013
 0.906479E-013
 0.906483E-013
 0.906490E-013
 0.906500E-013
 0.906514E-013
 0.906531E-013
 0.906551E-013
 0.906575E-013
 0.906602E-013
 0.906632E-013
 0.906665E-013
 0.906702E-013
 0.906741E-013
 0.906783E-013
 0.906829E-013
 0.906877E-013
 0.906927E-013
 0.906980E-013
 0.907036E-013
 0.907094E-013
 0.907155E-013
 0.907217E-013
 0.907282E-013
 0.907349E-013
 0.907418E-013
 0.907488E-013
 0.907561E-013
 0.907635E-013
 0.907710E-013
 0.907787E-013
 0.907865E-013
 0.907945E-013
 0.908026E-013
 0.908108E-013
 0.908191E-013
 0.908275E-013
 0.908360E-013
 0.908445E-013
 0.908532E-013
 0.908619E-013
 0.908707E-013
 0.908795E-013
 0.908884E-013
 0.908974E-013
 0.909064E-013
 0.909154E-013
 0.909245E-013
 0.909336E-013
 0.909428E-013
 0.909520E-013
 0.909612E-013
 0.909704E-013
 0.909796E-013
 0.909889E-013
 0.909982E-013
 0.910075E-013
 0.910169E-013
 0.910262E-013
 0.910356E-013
 0.910450E-013
 0.910543E-013
 0.910655E-013
 0.910528E-013
 0.912537E-013
 0.913419E-013
 0.910655E-013
 0.910988E-013
 0.910969E-013
 0.910979E-013
 0.910986E-013
 0.910994E-013
 0.911002E-013
 0.911010E-013
 0.911018E-013
 0.911025E-013
 0.911033E-013
 0.911041E-013
 0.911049E-013
 0.911056E-013
 0.911064E-013
 0.911072E-013
 0.911079E-013
 0.911087E-013
 0.911095E-013
 0.911102E-013
 0.911110E-013
 0.911117E-013
 0.911125E-013
 0.911132E-013
 0.911140E-013
 0.911147E-013
 0.911155E-013
 0.911162E-013
 0.911169E-013
 0.911176E-013
 0.911184E-013
 0.911191E-013
 0.911198E-013
 0.911205E-013
 0.911212E-013
 0.911218E-013
 0.911225E-013
 0.911232E-013
 0.911238E-013
 0.911245E-013
 0.911251E-013
 0.911257E-013
 0.911263E-013
 0.911269E-013
 0.911274E-013
 0.911279E-013
 0.911285E-013
 0.911289E-013
 0.911294E-013
 0.911299E-013
 0.911303E-013
 0.911307E-013
 0.911310E-013
 0.911314E-013
 0.911317E-013
 0.911319E-013
 0.911322E-013
 0.911324E-013
 0.911326E-013
 0.911327E-013
 0.911328E-013
 0.911329E-013
 0.911329E-013
 0.911329E-013
 0.911329E-013
 0.911328E-013
 0.911327E-013
 0.911326E-013
 0.911324E-013
 0.911322E-013
 0.911319E-013
 0.911317E-013
 0.911314E-013
 0.911310E-013
 0.911307E-013
 0.911303E-013
 0.911299E-013
 0.911294E-013
 0.911289E-013
 0.911285E-013
 0.911279E-013
 0.911274E-013
 0.911269E-013
 0.911263E-013
 0.911257E-013
 0.911251E-013
 0.911245E-013
 0.911238E-013
 0.911232E-013
 0.911225E-013
 0.911219E-013
 0.911212E-013
 0.911205E-013
 0.911198E-013
 0.911191E-013
 0.911184E-013
 0.911176E-013
 0.911169E-013
 0.911162E-013
 0.911155E-013
 0.911147E-013
 0.911140E-013
 0.911132E-013
 0.911125E-013
 0.911117E-013
 0.911110E-013
 0.911102E-013
 0.911095E-013
 0.911087E-013
 0.911079E-013
 0.911072E-013
 0.911064E-013
 0.911056E-013
 0.911049E-013
 0.911041E-013
 0.911033E-013
 0.911025E-013
 0.911018E-013
 0.911010E-013
 0.911002E-013
 0.910994E-013
 0.910987E-013
 0.910979E-013
 0.910969E-013
 0.910988E-013
 0.910655E-013
 0.913419E-013
 0.914168E-013
 0.910543E-013
 0.910969E-013
 0.910934E-013
 0.910936E-013
 0.910935E-013
 0.910935E-013
 0.910934E-013
 0.910934E-013
 0.910933E-013
 0.910933E-013
 0.910933E-013
 0.910932E-013
 0.910932E-013
 0.910931E-013
 0.910931E-013
 0.910931E-013
 0.910930E-013
 0.910930E-013
 0.910929E-013
 0.910929E-013
 0.910929E-013
 0.910929E-013
 0.910928E-013
 0.910928E-013
 0.910928E-013
 0.910928E-013
 0.910928E-013
 0.910928E-013
 0.910928E-013
 0.910928E-013
 0.910928E-013
 0.910928E-013
 0.910928E-013
 0.910928E-013
 0.910928E-013
 0.910929E-013
 0.910929E-013
 0.910929E-013
 0.910930E-013
 0.910930E-013
 0.910930E-013
 0.910931E-013
 0.910931E-013
 0.910932E-013
 0.910932E-013
 0.910933E-013
 0.910934E-013
 0.910934E-013
 0.910935E-013
 0.910935E-013
 0.910936E-013
 0.910936E-013
 0.910937E-013
 0.910937E-013
 0.910938E-013
 0.910938E-013
 0.910939E-013
 0.910939E-013
 0.910939E-013
 0.910940E-013
 0.910940E-013
 0.910940E-013
 0.910940E-013
 0.910940E-013
 0.910940E-013
 0.910940E-013
 0.910940E-013
 0.910939E-013
 0.910939E-013
 0.910939E-013
 0.910938E-013
 0.910938E-013
 0.910937E-013
 0.910937E-013
 0.910936E-013
 0.910936E-013
 0.910935E-013
 0.910935E-013
 0.910934E-013
 0.910934E-013
 0.910933E-013
 0.910932E-013
 0.910932E-013
 0.910931E-013
 0.910931E-013
 0.910930E-013
 0.910930E-013
 0.910930E-013
 0.910929E-013
 0.910929E-013
 0.910929E-013
 0.910928E-013
 0.910928E-013
 0.910928E-013
 0.910928E-013
 0.910928E-013
 0.910928E-013
 0.910928E-013
 0.910928E-013
 0.910928E-013
 0.910928E-013
 0.910928E-013
 0.910928E-013
 0.910928E-013
 0.910929E-013
 0.910929E-013
 0.910929E-013
 0.910929E-013
 0.910930E-013
 0.910930E-013
 0.910931E-013
 0.910931E-013
 0.910931E-013
 0.910932E-013
 0.910932E-013
 0.910933E-013
 0.910933E-013
 0.910933E-013
 0.910934E-013
 0.910934E-013
 0.910935E-013
 0.910935E-013
 0.910936E-013
 0.910934E-013
 0.910969E-013
 0.910543E-013
 0.914167E-013
 0.914927E-013
 0.910450E-013
 0.910979E-013
 0.910936E-013
 0.910939E-013
 0.910938E-013
 0.910939E-013
 0.910939E-013
 0.910939E-013
 0.910939E-013
 0.910939E-013
 0.910939E-013
 0.910939E-013
 0.910939E-013
 0.910939E-013
 0.910939E-013
 0.910939E-013
 0.910939E-013
 0.910940E-013
 0.910940E-013
 0.910940E-013
 0.910940E-013
 0.910941E-013
 0.910941E-013
 0.910941E-013
 0.910942E-013
 0.910942E-013
 0.910942E-013
 0.910943E-013
 0.910943E-013
 0.910944E-013
 0.910944E-013
 0.910945E-013
 0.910946E-013
 0.910947E-013
 0.910947E-013
 0.910948E-013
 0.910949E-013
 0.910950E-013
 0.910951E-013
 0.910952E-013
 0.910953E-013
 0.910954E-013
 0.910955E-013
 0.910956E-013
 0.910957E-013
 0.910958E-013
 0.910959E-013
 0.910960E-013
 0.910961E-013
 0.910962E-013
 0.910963E-013
 0.910964E-013
 0.910965E-013
 0.910965E-013
 0.910966E-013
 0.910967E-013
 0.910968E-013
 0.910968E-013
 0.910969E-013
 0.910969E-013
 0.910969E-013
 0.910969E-013
 0.910969E-013
 0.910969E-013
 0.910969E-013
 0.910969E-013
 0.910969E-013
 0.910969E-013
 0.910968E-013
 0.910968E-013
 0.910967E-013
 0.910966E-013
 0.910965E-013
 0.910965E-013
 0.910964E-013
 0.910963E-013
 0.910962E-013
 0.910961E-013
 0.910960E-013
 0.910959E-013
 0.910958E-013
 0.910957E-013
 0.910956E-013
 0.910955E-013
 0.910954E-013
 0.910953E-013
 0.910952E-013
 0.910951E-013
 0.910950E-013
 0.910949E-013
 0.910948E-013
 0.910947E-013
 0.910947E-013
 0.910946E-013
 0.910945E-013
 0.910945E-013
 0.910944E-013
 0.910943E-013
 0.910943E-013
 0.910942E-013
 0.910942E-013
 0.910942E-013
 0.910941E-013
 0.910941E-013
 0.910941E-013
 0.910940E-013
 0.910940E-013
 0.910940E-013
 0.910940E-013
 0.910940E-013
 0.910939E-013
 0.910939E-013
 0.910939E-013
 0.910939E-013
 0.910939E-013
 0.910939E-013
 0.910939E-013
 0.910939E-013
 0.910939E-013
 0.910939E-013
 0.910939E-013
 0.910939E-013
 0.910939E-013
 0.910936E-013
 0.910979E-013
 0.910450E-013
 0.914926E-013
 0.915684E-013
 0.910356E-013
 0.910986E-013
 0.910935E-013
 0.910938E-013
 0.910938E-013
 0.910938E-013
 0.910938E-013
 0.910938E-013
 0.910938E-013
 0.910938E-013
 0.910939E-013
 0.910939E-013
 0.910939E-013
 0.910939E-013
 0.910939E-013
 0.910939E-013
 0.910939E-013
 0.910939E-013
 0.910940E-013
 0.910940E-013
 0.910940E-013
 0.910940E-013
 0.910941E-013
 0.910941E-013
 0.910941E-013
 0.910942E-013
 0.910942E-013
 0.910943E-013
 0.910943E-013
 0.910944E-013
 0.910945E-013
 0.910946E-013
 0.910946E-013
 0.910947E-013
 0.910948E-013
 0.910949E-013
 0.910950E-013
 0.910951E-013
 0.910952E-013
 0.910953E-013
 0.910954E-013
 0.910956E-013
 0.910957E-013
 0.910958E-013
 0.910959E-013
 0.910960E-013
 0.910962E-013
 0.910963E-013
 0.910964E-013
 0.910965E-013
 0.910966E-013
 0.910967E-013
 0.910968E-013
 0.910969E-013
 0.910970E-013
 0.910971E-013
 0.910972E-013
 0.910973E-013
 0.910973E-013
 0.910974E-013
 0.910974E-013
 0.910974E-013
 0.910974E-013
 0.910974E-013
 0.910974E-013
 0.910974E-013
 0.910974E-013
 0.910973E-013
 0.910973E-013
 0.910972E-013
 0.910971E-013
 0.910970E-013
 0.910969E-013
 0.910968E-013
 0.910967E-013
 0.910966E-013
 0.910965E-013
 0.910964E-013
 0.910963E-013
 0.910962E-013
 0.910960E-013
 0.910959E-013
 0.910958E-013
 0.910957E-013
 0.910956E-013
 0.910954E-013
 0.910953E-013
 0.910952E-013
 0.910951E-013
 0.910950E-013
 0.910949E-013
 0.910948E-013
 0.910947E-013
 0.910946E-013
 0.910946E-013
 0.910945E-013
 0.910944E-013
 0.910944E-013
 0.910943E-013
 0.910942E-013
 0.910942E-013
 0.910941E-013
 0.910941E-013
 0.910941E-013
 0.910940E-013
 0.910940E-013
 0.910940E-013
 0.910940E-013
 0.910939E-013
 0.910939E-013
 0.910939E-013
 0.910939E-013
 0.910939E-013
 0.910939E-013
 0.910939E-013
 0.910939E-013
 0.910939E-013
 0.910939E-013
 0.910938E-013
 0.910938E-013
 0.910938E-013
 0.910938E-013
 0.910939E-013
 0.910935E-013
 0.910987E-013
 0.910356E-013
 0.915682E-013
 0.916440E-013
 0.910262E-013
 0.910994E-013
 0.910935E-013
 0.910939E-013
 0.910938E-013
 0.910938E-013
 0.910938E-013
 0.910938E-013
 0.910938E-013
 0.910939E-013
 0.910939E-013
 0.910939E-013
 0.910939E-013
 0.910939E-013
 0.910939E-013
 0.910939E-013
 0.910939E-013
 0.910940E-013
 0.910940E-013
 0.910940E-013
 0.910940E-013
 0.910941E-013
 0.910941E-013
 0.910942E-013
 0.910942E-013
 0.910943E-013
 0.910943E-013
 0.910944E-013
 0.910945E-013
 0.910945E-013
 0.910946E-013
 0.910947E-013
 0.910948E-013
 0.910949E-013
 0.910950E-013
 0.910951E-013
 0.910952E-013
 0.910954E-013
 0.910955E-013
 0.910956E-013
 0.910958E-013
 0.910959E-013
 0.910960E-013
 0.910962E-013
 0.910963E-013
 0.910965E-013
 0.910966E-013
 0.910968E-013
 0.910969E-013
 0.910971E-013
 0.910972E-013
 0.910973E-013
 0.910974E-013
 0.910976E-013
 0.910977E-013
 0.910978E-013
 0.910979E-013
 0.910979E-013
 0.910980E-013
 0.910981E-013
 0.910981E-013
 0.910981E-013
 0.910981E-013
 0.910981E-013
 0.910981E-013
 0.910981E-013
 0.910981E-013
 0.910980E-013
 0.910979E-013
 0.910979E-013
 0.910978E-013
 0.910977E-013
 0.910976E-013
 0.910974E-013
 0.910973E-013
 0.910972E-013
 0.910971E-013
 0.910969E-013
 0.910968E-013
 0.910966E-013
 0.910965E-013
 0.910963E-013
 0.910962E-013
 0.910960E-013
 0.910959E-013
 0.910958E-013
 0.910956E-013
 0.910955E-013
 0.910954E-013
 0.910952E-013
 0.910951E-013
 0.910950E-013
 0.910949E-013
 0.910948E-013
 0.910947E-013
 0.910946E-013
 0.910945E-013
 0.910945E-013
 0.910944E-013
 0.910943E-013
 0.910943E-013
 0.910942E-013
 0.910942E-013
 0.910941E-013
 0.910941E-013
 0.910940E-013
 0.910940E-013
 0.910940E-013
 0.910940E-013
 0.910939E-013
 0.910939E-013
 0.910939E-013
 0.910939E-013
 0.910939E-013
 0.910939E-013
 0.910939E-013
 0.910939E-013
 0.910939E-013
 0.910939E-013
 0.910938E-013
 0.910938E-013
 0.910938E-013
 0.910939E-013
 0.910935E-013
 0.910994E-013
 0.910263E-013
 0.916438E-013
 0.917195E-013
 0.910169E-013
 0.911002E-013
 0.910934E-013
 0.910939E-013
 0.910938E-013
 0.910938E-013
 0.910938E-013
 0.910938E-013
 0.910939E-013
 0.910939E-013
 0.910939E-013
 0.910939E-013
 0.910939E-013
 0.910939E-013
 0.910939E-013
 0.910939E-013
 0.910940E-013
 0.910940E-013
 0.910940E-013
 0.910941E-013
 0.910941E-013
 0.910941E-013
 0.910942E-013
 0.910942E-013
 0.910943E-013
 0.910944E-013
 0.910944E-013
 0.910945E-013
 0.910946E-013
 0.910947E-013
 0.910948E-013
 0.910949E-013
 0.910950E-013
 0.910951E-013
 0.910952E-013
 0.910954E-013
 0.910955E-013
 0.910957E-013
 0.910958E-013
 0.910960E-013
 0.910961E-013
 0.910963E-013
 0.910965E-013
 0.910966E-013
 0.910968E-013
 0.910970E-013
 0.910972E-013
 0.910973E-013
 0.910975E-013
 0.910977E-013
 0.910978E-013
 0.910980E-013
 0.910981E-013
 0.910983E-013
 0.910984E-013
 0.910985E-013
 0.910986E-013
 0.910987E-013
 0.910988E-013
 0.910989E-013
 0.910989E-013
 0.910989E-013
 0.910990E-013
 0.910990E-013
 0.910989E-013
 0.910989E-013
 0.910989E-013
 0.910988E-013
 0.910987E-013
 0.910986E-013
 0.910985E-013
 0.910984E-013
 0.910983E-013
 0.910981E-013
 0.910980E-013
 0.910978E-013
 0.910977E-013
 0.910975E-013
 0.910973E-013
 0.910972E-013
 0.910970E-013
 0.910968E-013
 0.910966E-013
 0.910965E-013
 0.910963E-013
 0.910961E-013
 0.910960E-013
 0.910958E-013
 0.910957E-013
 0.910955E-013
 0.910954E-013
 0.910952E-013
 0.910951E-013
 0.910950E-013
 0.910949E-013
 0.910948E-013
 0.910947E-013
 0.910946E-013
 0.910945E-013
 0.910944E-013
 0.910944E-013
 0.910943E-013
 0.910942E-013
 0.910942E-013
 0.910941E-013
 0.910941E-013
 0.910941E-013
 0.910940E-013
 0.910940E-013
 0.910940E-013
 0.910939E-013
 0.910939E-013
 0.910939E-013
 0.910939E-013
 0.910939E-013
 0.910939E-013
 0.910939E-013
 0.910939E-013
 0.910939E-013
 0.910939E-013
 0.910939E-013
 0.910938E-013
 0.910939E-013
 0.910935E-013
 0.911002E-013
 0.910169E-013
 0.917193E-013
 0.917949E-013
 0.910075E-013
 0.911010E-013
 0.910934E-013
 0.910939E-013
 0.910938E-013
 0.910938E-013
 0.910938E-013
 0.910939E-013
 0.910939E-013
 0.910939E-013
 0.910939E-013
 0.910939E-013
 0.910939E-013
 0.910939E-013
 0.910939E-013
 0.910940E-013
 0.910940E-013
 0.910940E-013
 0.910941E-013
 0.910941E-013
 0.910941E-013
 0.910942E-013
 0.910942E-013
 0.910943E-013
 0.910944E-013
 0.910945E-013
 0.910945E-013
 0.910946E-013
 0.910947E-013
 0.910948E-013
 0.910950E-013
 0.910951E-013
 0.910952E-013
 0.910954E-013
 0.910955E-013
 0.910957E-013
 0.910958E-013
 0.910960E-013
 0.910962E-013
 0.910964E-013
 0.910966E-013
 0.910968E-013
 0.910970E-013
 0.910972E-013
 0.910974E-013
 0.910976E-013
 0.910978E-013
 0.910980E-013
 0.910982E-013
 0.910984E-013
 0.910986E-013
 0.910988E-013
 0.910990E-013
 0.910991E-013
 0.910993E-013
 0.910994E-013
 0.910995E-013
 0.910996E-013
 0.910997E-013
 0.910998E-013
 0.910999E-013
 0.910999E-013
 0.910999E-013
 0.910999E-013
 0.910999E-013
 0.910999E-013
 0.910998E-013
 0.910997E-013
 0.910996E-013
 0.910995E-013
 0.910994E-013
 0.910993E-013
 0.910991E-013
 0.910990E-013
 0.910988E-013
 0.910986E-013
 0.910984E-013
 0.910982E-013
 0.910980E-013
 0.910978E-013
 0.910976E-013
 0.910974E-013
 0.910972E-013
 0.910970E-013
 0.910968E-013
 0.910966E-013
 0.910964E-013
 0.910962E-013
 0.910960E-013
 0.910958E-013
 0.910957E-013
 0.910955E-013
 0.910954E-013
 0.910952E-013
 0.910951E-013
 0.910950E-013
 0.910948E-013
 0.910947E-013
 0.910946E-013
 0.910945E-013
 0.910945E-013
 0.910944E-013
 0.910943E-013
 0.910943E-013
 0.910942E-013
 0.910942E-013
 0.910941E-013
 0.910941E-013
 0.910940E-013
 0.910940E-013
 0.910940E-013
 0.910940E-013
 0.910939E-013
 0.910939E-013
 0.910939E-013
 0.910939E-013
 0.910939E-013
 0.910939E-013
 0.910939E-013
 0.910939E-013
 0.910939E-013
 0.910939E-013
 0.910939E-013
 0.910934E-013
 0.911010E-013
 0.910076E-013
 0.917947E-013
 0.918702E-013
 0.909982E-013
 0.911018E-013
 0.910933E-013
 0.910939E-013
 0.910938E-013
 0.910938E-013
 0.910939E-013
 0.910939E-013
 0.910939E-013
 0.910939E-013
 0.910939E-013
 0.910939E-013
 0.910939E-013
 0.910939E-013
 0.910940E-013
 0.910940E-013
 0.910940E-013
 0.910941E-013
 0.910941E-013
 0.910942E-013
 0.910942E-013
 0.910943E-013
 0.910943E-013
 0.910944E-013
 0.910945E-013
 0.910946E-013
 0.910947E-013
 0.910948E-013
 0.910949E-013
 0.910950E-013
 0.910952E-013
 0.910953E-013
 0.910955E-013
 0.910956E-013
 0.910958E-013
 0.910960E-013
 0.910962E-013
 0.910964E-013
 0.910966E-013
 0.910969E-013
 0.910971E-013
 0.910973E-013
 0.910976E-013
 0.910978E-013
 0.910980E-013
 0.910983E-013
 0.910985E-013
 0.910988E-013
 0.910990E-013
 0.910993E-013
 0.910995E-013
 0.910997E-013
 0.910999E-013
 0.911001E-013
 0.911003E-013
 0.911004E-013
 0.911006E-013
 0.911007E-013
 0.911008E-013
 0.911009E-013
 0.911010E-013
 0.911010E-013
 0.911011E-013
 0.911011E-013
 0.911010E-013
 0.911010E-013
 0.911009E-013
 0.911008E-013
 0.911007E-013
 0.911006E-013
 0.911005E-013
 0.911003E-013
 0.911001E-013
 0.910999E-013
 0.910997E-013
 0.910995E-013
 0.910993E-013
 0.910990E-013
 0.910988E-013
 0.910985E-013
 0.910983E-013
 0.910981E-013
 0.910978E-013
 0.910976E-013
 0.910973E-013
 0.910971E-013
 0.910969E-013
 0.910966E-013
 0.910964E-013
 0.910962E-013
 0.910960E-013
 0.910958E-013
 0.910957E-013
 0.910955E-013
 0.910953E-013
 0.910952E-013
 0.910950E-013
 0.910949E-013
 0.910948E-013
 0.910947E-013
 0.910946E-013
 0.910945E-013
 0.910944E-013
 0.910943E-013
 0.910943E-013
 0.910942E-013
 0.910942E-013
 0.910941E-013
 0.910941E-013
 0.910940E-013
 0.910940E-013
 0.910940E-013
 0.910940E-013
 0.910939E-013
 0.910939E-013
 0.910939E-013
 0.910939E-013
 0.910939E-013
 0.910939E-013
 0.910939E-013
 0.910939E-013
 0.910939E-013
 0.910939E-013
 0.910934E-013
 0.911018E-013
 0.909982E-013
 0.918699E-013
 0.919454E-013
 0.909889E-013
 0.911025E-013
 0.910933E-013
 0.910939E-013
 0.910938E-013
 0.910939E-013
 0.910939E-013
 0.910939E-013
 0.910939E-013
 0.910939E-013
 0.910939E-013
 0.910939E-013
 0.910939E-013
 0.910940E-013
 0.910940E-013
 0.910940E-013
 0.910941E-013
 0.910941E-013
 0.910942E-013
 0.910942E-013
 0.910943E-013
 0.910944E-013
 0.910944E-013
 0.910945E-013
 0.910946E-013
 0.910947E-013
 0.910948E-013
 0.910950E-013
 0.910951E-013
 0.910953E-013
 0.910954E-013
 0.910956E-013
 0.910958E-013
 0.910960E-013
 0.910962E-013
 0.910964E-013
 0.910966E-013
 0.910969E-013
 0.910971E-013
 0.910974E-013
 0.910977E-013
 0.910980E-013
 0.910982E-013
 0.910985E-013
 0.910988E-013
 0.910991E-013
 0.910994E-013
 0.910997E-013