# vtk DataFile Version 3.0
Solution data
ASCII
DATASET STRUCTURED_GRID
DIMENSIONS 128 128 1
POINTS 16384  double
      0.000004      0.000004      0.000000
      0.000012      0.000004      0.000000
      0.000020      0.000004      0.000000
      0.000027      0.000004      0.000000
      0.000035      0.000004      0.000000
      0.000043      0.000004      0.000000
      0.000051      0.000004      0.000000
      0.000059      0.000004      0.000000
      0.000066      0.000004      0.000000
      0.000074      0.000004      0.000000
      0.000082      0.000004      0.000000
      0.000090      0.000004      0.000000
      0.000098      0.000004      0.000000
      0.000105      0.000004      0.000000
      0.000113      0.000004      0.000000
      0.000121      0.000004      0.000000
      0.000129      0.000004      0.000000
      0.000137      0.000004      0.000000
      0.000145      0.000004      0.000000
      0.000152      0.000004      0.000000
      0.000160      0.000004      0.000000
      0.000168      0.000004      0.000000
      0.000176      0.000004      0.000000
      0.000184      0.000004      0.000000
      0.000191      0.000004      0.000000
      0.000199      0.000004      0.000000
      0.000207      0.000004      0.000000
      0.000215      0.000004      0.000000
      0.000223      0.000004      0.000000
      0.000230      0.000004      0.000000
      0.000238      0.000004      0.000000
      0.000246      0.000004      0.000000
      0.000254      0.000004      0.000000
      0.000262      0.000004      0.000000
      0.000270      0.000004      0.000000
      0.000277      0.000004      0.000000
      0.000285      0.000004      0.000000
      0.000293      0.000004      0.000000
      0.000301      0.000004      0.000000
      0.000309      0.000004      0.000000
      0.000316      0.000004      0.000000
      0.000324      0.000004      0.000000
      0.000332      0.000004      0.000000
      0.000340      0.000004      0.000000
      0.000348      0.000004      0.000000
      0.000355      0.000004      0.000000
      0.000363      0.000004      0.000000
      0.000371      0.000004      0.000000
      0.000379      0.000004      0.000000
      0.000387      0.000004      0.000000
      0.000395      0.000004      0.000000
      0.000402      0.000004      0.000000
      0.000410      0.000004      0.000000
      0.000418      0.000004      0.000000
      0.000426      0.000004      0.000000
      0.000434      0.000004      0.000000
      0.000441      0.000004      0.000000
      0.000449      0.000004      0.000000
      0.000457      0.000004      0.000000
      0.000465      0.000004      0.000000
      0.000473      0.000004      0.000000
      0.000480      0.000004      0.000000
      0.000488      0.000004      0.000000
      0.000496      0.000004      0.000000
      0.000504      0.000004      0.000000
      0.000512      0.000004      0.000000
      0.000520      0.000004      0.000000
      0.000527      0.000004      0.000000
      0.000535      0.000004      0.000000
      0.000543      0.000004      0.000000
      0.000551      0.000004      0.000000
      0.000559      0.000004      0.000000
      0.000566      0.000004      0.000000
      0.000574      0.000004      0.000000
      0.000582      0.000004      0.000000
      0.000590      0.000004      0.000000
      0.000598      0.000004      0.000000
      0.000605      0.000004      0.000000
      0.000613      0.000004      0.000000
      0.000621      0.000004      0.000000
      0.000629      0.000004      0.000000
      0.000637      0.000004      0.000000
      0.000645      0.000004      0.000000
      0.000652      0.000004      0.000000
      0.000660      0.000004      0.000000
      0.000668      0.000004      0.000000
      0.000676      0.000004      0.000000
      0.000684      0.000004      0.000000
      0.000691      0.000004      0.000000
      0.000699      0.000004      0.000000
      0.000707      0.000004      0.000000
      0.000715      0.000004      0.000000
      0.000723      0.000004      0.000000
      0.000730      0.000004      0.000000
      0.000738      0.000004      0.000000
      0.000746      0.000004      0.000000
      0.000754      0.000004      0.000000
      0.000762      0.000004      0.000000
      0.000770      0.000004      0.000000
      0.000777      0.000004      0.000000
      0.000785      0.000004      0.000000
      0.000793      0.000004      0.000000
      0.000801      0.000004      0.000000
      0.000809      0.000004      0.000000
      0.000816      0.000004      0.000000
      0.000824      0.000004      0.000000
      0.000832      0.000004      0.000000
      0.000840      0.000004      0.000000
      0.000848      0.000004      0.000000
      0.000855      0.000004      0.000000
      0.000863      0.000004      0.000000
      0.000871      0.000004      0.000000
      0.000879      0.000004      0.000000
      0.000887      0.000004      0.000000
      0.000895      0.000004      0.000000
      0.000902      0.000004      0.000000
      0.000910      0.000004      0.000000
      0.000918      0.000004      0.000000
      0.000926      0.000004      0.000000
      0.000934      0.000004      0.000000
      0.000941      0.000004      0.000000
      0.000949      0.000004      0.000000
      0.000957      0.000004      0.000000
      0.000965      0.000004      0.000000
      0.000973      0.000004      0.000000
      0.000980      0.000004      0.000000
      0.000988      0.000004      0.000000
      0.000996      0.000004      0.000000
      0.000004      0.000012      0.000000
      0.000012      0.000012      0.000000
      0.000020      0.000012      0.000000
      0.000027      0.000012      0.000000
      0.000035      0.000012      0.000000
      0.000043      0.000012      0.000000
      0.000051      0.000012      0.000000
      0.000059      0.000012      0.000000
      0.000066      0.000012      0.000000
      0.000074      0.000012      0.000000
      0.000082      0.000012      0.000000
      0.000090      0.000012      0.000000
      0.000098      0.000012      0.000000
      0.000105      0.000012      0.000000
      0.000113      0.000012      0.000000
      0.000121      0.000012      0.000000
      0.000129      0.000012      0.000000
      0.000137      0.000012      0.000000
      0.000145      0.000012      0.000000
      0.000152      0.000012      0.000000
      0.000160      0.000012      0.000000
      0.000168      0.000012      0.000000
      0.000176      0.000012      0.000000
      0.000184      0.000012      0.000000
      0.000191      0.000012      0.000000
      0.000199      0.000012      0.000000
      0.000207      0.000012      0.000000
      0.000215      0.000012      0.000000
      0.000223      0.000012      0.000000
      0.000230      0.000012      0.000000
      0.000238      0.000012      0.000000
      0.000246      0.000012      0.000000
      0.000254      0.000012      0.000000
      0.000262      0.000012      0.000000
      0.000270      0.000012      0.000000
      0.000277      0.000012      0.000000
      0.000285      0.000012      0.000000
      0.000293      0.000012      0.000000
      0.000301      0.000012      0.000000
      0.000309      0.000012      0.000000
      0.000316      0.000012      0.000000
      0.000324      0.000012      0.000000
      0.000332      0.000012      0.000000
      0.000340      0.000012      0.000000
      0.000348      0.000012      0.000000
      0.000355      0.000012      0.000000
      0.000363      0.000012      0.000000
      0.000371      0.000012      0.000000
      0.000379      0.000012      0.000000
      0.000387      0.000012      0.000000
      0.000395      0.000012      0.000000
      0.000402      0.000012      0.000000
      0.000410      0.000012      0.000000
      0.000418      0.000012      0.000000
      0.000426      0.000012      0.000000
      0.000434      0.000012      0.000000
      0.000441      0.000012      0.000000
      0.000449      0.000012      0.000000
      0.000457      0.000012      0.000000
      0.000465      0.000012      0.000000
      0.000473      0.000012      0.000000
      0.000480      0.000012      0.000000
      0.000488      0.000012      0.000000
      0.000496      0.000012      0.000000
      0.000504      0.000012      0.000000
      0.000512      0.000012      0.000000
      0.000520      0.000012      0.000000
      0.000527      0.000012      0.000000
      0.000535      0.000012      0.000000
      0.000543      0.000012      0.000000
      0.000551      0.000012      0.000000
      0.000559      0.000012      0.000000
      0.000566      0.000012      0.000000
      0.000574      0.000012      0.000000
      0.000582      0.000012      0.000000
      0.000590      0.000012      0.000000
      0.000598      0.000012      0.000000
      0.000605      0.000012      0.000000
      0.000613      0.000012      0.000000
      0.000621      0.000012      0.000000
      0.000629      0.000012      0.000000
      0.000637      0.000012      0.000000
      0.000645      0.000012      0.000000
      0.000652      0.000012      0.000000
      0.000660      0.000012      0.000000
      0.000668      0.000012      0.000000
      0.000676      0.000012      0.000000
      0.000684      0.000012      0.000000
      0.000691      0.000012      0.000000
      0.000699      0.000012      0.000000
      0.000707      0.000012      0.000000
      0.000715      0.000012      0.000000
      0.000723      0.000012      0.000000
      0.000730      0.000012      0.000000
      0.000738      0.000012      0.000000
      0.000746      0.000012      0.000000
      0.000754      0.000012      0.000000
      0.000762      0.000012      0.000000
      0.000770      0.000012      0.000000
      0.000777      0.000012      0.000000
      0.000785      0.000012      0.000000
[...]
POINT_DATA 16384
SCALARS rhoe double
LOOKUP_TABLE default
 0.916535E-013
 0.912303E-013
 0.915469E-013
 0.915399E-013
 0.916541E-013
 0.917286E-013
 0.918141E-013
 0.918966E-013
 0.919795E-013
 0.920619E-013
 0.921442E-013
 0.922262E-013
 0.923079E-013
 0.923893E-013
 0.924703E-013
 0.925511E-013
 0.926314E-013
 0.927114E-013
 0.927910E-013
 0.928701E-013
 0.929488E-013
 0.930270E-013
 0.931046E-013
 0.931817E-013
 0.932581E-013
 0.933339E-013
 0.934089E-013
 0.934832E-013
 0.935567E-013
 0.936293E-013
 0.937010E-013
 0.937717E-013
 0.938413E-013
 0.939098E-013
 0.939772E-013
 0.940433E-013
 0.941081E-013
 0.941714E-013
 0.942333E-013
 0.942937E-013
 0.943525E-013
 0.944095E-013
 0.944648E-013
 0.945182E-013
 0.945697E-013
 0.946191E-013
 0.946665E-013
 0.947118E-013
 0.947548E-013
 0.947955E-013
 0.948338E-013
 0.948697E-013
 0.949031E-013
 0.949339E-013
 0.949621E-013
 0.949877E-013
 0.950105E-013
 0.950306E-013
 0.950479E-013
 0.950623E-013
 0.950739E-013
 0.950826E-013
 0.950885E-013
 0.950914E-013
 0.950914E-013
 0.950885E-013
 0.950827E-013
 0.950739E-013
 0.950623E-013
 0.950479E-013
 0.950306E-013
 0.950105E-013
 0.949877E-013
 0.949621E-013
 0.949339E-013
 0.949031E-013
 0.948697E-013
 0.948338E-013
 0.947955E-013
 0.947548E-013
 0.947118E-013
 0.946666E-013
 0.946192E-013
 0.945697E-013
 0.945182E-013
 0.944648E-013
 0.944095E-013
 0.943525E-013
 0.942937E-013
 0.942334E-013
 0.941715E-013
 0.941081E-013
 0.940433E-013
 0.939772E-013
 0.939099E-013
 0.938414E-013
 0.937717E-013
 0.937010E-013
 0.936293E-013
 0.935567E-013
 0.934832E-013
 0.934090E-013
 0.933339E-013
 0.932581E-013
 0.931817E-013
 0.931047E-013
 0.930270E-013
 0.929488E-013
 0.928702E-013
 0.927910E-013
 0.927114E-013
 0.926315E-013
 0.925511E-013
 0.924704E-013
 0.923893E-013
 0.923079E-013
 0.922262E-013
 0.921442E-013
 0.920620E-013
 0.919795E-013
 0.918966E-013
 0.918141E-013
 0.917286E-013
 0.916541E-013
 0.915399E-013
 0.915469E-013
 0.912303E-013
 0.916535E-013
 0.912303E-013
 0.907676E-013
 0.909425E-013
 0.907858E-013
 0.907699E-013
 0.907041E-013
 0.906537E-013
 0.905993E-013
 0.905461E-013
 0.904929E-013
 0.904398E-013
 0.903869E-013
 0.903343E-013
 0.902818E-013
 0.902295E-013
 0.901774E-013
 0.901256E-013
 0.900740E-013
 0.900227E-013
 0.899716E-013
 0.899209E-013
 0.898704E-013
 0.898203E-013
 0.897706E-013
 0.897213E-013
 0.896724E-013
 0.896240E-013
 0.895760E-013
 0.895286E-013
 0.894817E-013
 0.894354E-013
 0.893898E-013
 0.893448E-013
 0.893005E-013
 0.892570E-013
 0.892143E-013
 0.891725E-013
 0.891315E-013
 0.890915E-013
 0.890525E-013
 0.890145E-013
 0.889776E-013
 0.889419E-013
 0.889074E-013
 0.888741E-013
 0.888421E-013
 0.888114E-013
 0.887822E-013
 0.887543E-013
 0.887280E-013
 0.887032E-013
 0.886800E-013
 0.886584E-013
 0.886384E-013
 0.886201E-013
 0.886036E-013
 0.885888E-013
 0.885758E-013
 0.885646E-013
 0.885553E-013
 0.885478E-013
 0.885421E-013
 0.885384E-013
 0.885365E-013
 0.885365E-013
 0.885384E-013
 0.885421E-013
 0.885478E-013
 0.885553E-013
 0.885647E-013
 0.885758E-013
 0.885888E-013
 0.886036E-013
 0.886202E-013
 0.886384E-013
 0.886584E-013
 0.886800E-013
 0.887032E-013
 0.887280E-013
 0.887543E-013
 0.887822E-013
 0.888114E-013
 0.888421E-013
 0.888741E-013
 0.889074E-013
 0.889419E-013
 0.889777E-013
 0.890145E-013
 0.890525E-013
 0.890915E-013
 0.891315E-013
 0.891725E-013
 0.892143E-013
 0.892570E-013
 0.893005E-013
 0.893448E-013
 0.893898E-013
 0.894354E-013
 0.894817E-013
 0.895286E-013
 0.895760E-013
 0.896240E-013
 0.896724E-013
 0.897213E-013
 0.897706E-013
 0.898204E-013
 0.898705E-013
 0.899209E-013
 0.899716E-013
 0.900227E-013
 0.900740E-013
 0.901256E-013
 0.901774E-013
 0.902295E-013
 0.902818E-013
 0.903343E-013
 0.903870E-013
 0.904398E-013
 0.904929E-013
 0.905461E-013
 0.905994E-013
 0.906537E-013
 0.907041E-013
 0.907699E-013
 0.907858E-013
 0.909425E-013
 0.907676E-013
 0.912303E-013
 0.915469E-013
 0.909425E-013
 0.913062E-013
 0.911854E-013
 0.912667E-013
 0.912765E-013
 0.913079E-013
 0.913335E-013
 0.913604E-013
 0.913870E-013
 0.914135E-013
 0.914398E-013
 0.914661E-013
 0.914923E-013
 0.915183E-013
 0.915443E-013
 0.915701E-013
 0.915959E-013
 0.916214E-013
 0.916469E-013
 0.916722E-013
 0.916973E-013
 0.917223E-013
 0.917470E-013
 0.917716E-013
 0.917960E-013
 0.918201E-013
 0.918440E-013
 0.918676E-013
 0.918910E-013
 0.919141E-013
 0.919368E-013
 0.919592E-013
 0.919813E-013
 0.920030E-013
 0.920242E-013
 0.920451E-013
 0.920655E-013
 0.920854E-013
 0.921049E-013
 0.921238E-013
 0.921422E-013
 0.921600E-013
 0.921772E-013
 0.921938E-013
 0.922097E-013
 0.922250E-013
 0.922396E-013
 0.922535E-013
 0.922666E-013
 0.922790E-013
 0.922905E-013
 0.923013E-013
 0.923113E-013
 0.923204E-013
 0.923286E-013
 0.923360E-013
 0.923424E-013
 0.923480E-013
 0.923527E-013
 0.923564E-013
 0.923592E-013
 0.923611E-013
 0.923621E-013
 0.923621E-013
 0.923611E-013
 0.923592E-013
 0.923564E-013
 0.923527E-013
 0.923480E-013
 0.923424E-013
 0.923360E-013
 0.923286E-013
 0.923203E-013
 0.923112E-013
 0.923013E-013
 0.922905E-013
 0.922789E-013
 0.922666E-013
 0.922535E-013
 0.922396E-013
 0.922250E-013
 0.922097E-013
 0.921938E-013
 0.921772E-013
 0.921600E-013
 0.921422E-013
 0.921238E-013
 0.921048E-013
 0.920854E-013
 0.920655E-013
 0.920451E-013
 0.920242E-013
 0.920029E-013
 0.919812E-013
 0.919592E-013
 0.919368E-013
 0.919140E-013
 0.918910E-013
 0.918676E-013
 0.918440E-013
 0.918201E-013
 0.917959E-013
 0.917716E-013
 0.917470E-013
 0.917222E-013
 0.916973E-013
 0.916721E-013
 0.916469E-013
 0.916214E-013
 0.915958E-013
 0.915701E-013
 0.915443E-013
 0.915183E-013
 0.914923E-013
 0.914661E-013
 0.914398E-013
 0.914134E-013
 0.913869E-013
 0.913604E-013
 0.913335E-013
 0.913079E-013
 0.912765E-013
 0.912667E-013
 0.911854E-013
 0.913062E-013
 0.909425E-013
 0.915469E-013
 0.915399E-013
 0.907858E-013
 0.911854E-013
 0.909907E-013
 0.910483E-013
 0.910158E-013
 0.910109E-013
 0.909987E-013
 0.909883E-013
 0.909775E-013
 0.909669E-013
 0.909563E-013
 0.909457E-013
 0.909351E-013
 0.909246E-013
 0.909142E-013
 0.909038E-013
 0.908934E-013
 0.908831E-013
 0.908728E-013
 0.908627E-013
 0.908525E-013
 0.908425E-013
 0.908325E-013
 0.908226E-013
 0.908128E-013
 0.908031E-013
 0.907934E-013
 0.907839E-013
 0.907745E-013
 0.907652E-013
 0.907561E-013
 0.907470E-013
 0.907381E-013
 0.907294E-013
 0.907208E-013
 0.907124E-013
 0.907042E-013
 0.906962E-013
 0.906883E-013
 0.906807E-013
 0.906733E-013
 0.906661E-013
 0.906592E-013
 0.906525E-013
 0.906461E-013
 0.906399E-013
 0.906341E-013
 0.906285E-013
 0.906232E-013
 0.906182E-013
 0.906135E-013
 0.906092E-013
 0.906052E-013
 0.906015E-013
 0.905982E-013
 0.905952E-013
 0.905926E-013
 0.905904E-013
 0.905885E-013
 0.905870E-013
 0.905858E-013
 0.905851E-013
 0.905847E-013
 0.905847E-013
 0.905851E-013
 0.905858E-013
 0.905870E-013
 0.905885E-013
 0.905904E-013
 0.905926E-013
 0.905952E-013
 0.905982E-013
 0.906015E-013
 0.906052E-013
 0.906092E-013
 0.906135E-013
 0.906182E-013
 0.906232E-013
 0.906285E-013
 0.906341E-013
 0.906399E-013
 0.906461E-013
 0.906525E-013
 0.906592E-013
 0.906662E-013
 0.906733E-013
 0.906807E-013
 0.906884E-013
 0.906962E-013
 0.907042E-013
 0.907125E-013
 0.907209E-013
 0.907294E-013
 0.907382E-013
 0.907470E-013
 0.907561E-013
 0.907652E-013
 0.907745E-013
 0.907839E-013
 0.907935E-013
 0.908031E-013
 0.908128E-013
 0.908226E-013
 0.908325E-013
 0.908425E-013
 0.908526E-013
 0.908627E-013
 0.908729E-013
 0.908831E-013
 0.908934E-013
 0.909038E-013
 0.909142E-013
 0.909246E-013
 0.909352E-013
 0.909457E-013
 0.909563E-013
 0.909669E-013
 0.909776E-013
 0.909883E-013
 0.909987E-013
 0.910109E-013
 0.910158E-013
 0.910483E-013
 0.909907E-013
 0.911854E-013
 0.907858E-013
 0.915399E-013
 0.916541E-013
 0.907699E-013
 0.912667E-013
 0.910483E-013
 0.911350E-013
 0.911122E-013
 0.911231E-013
 0.911250E-013
 0.911289E-013
 0.911325E-013
 0.911361E-013
 0.911396E-013
 0.911432E-013
 0.911467E-013
 0.911503E-013
 0.911538E-013
 0.911573E-013
 0.911608E-013
 0.911642E-013
 0.911677E-013
 0.911711E-013
 0.911745E-013
 0.911779E-013
 0.911812E-013
 0.911845E-013
 0.911878E-013
 0.911911E-013
 0.911943E-013
 0.911975E-013
 0.912007E-013
 0.912038E-013
 0.912069E-013
 0.912099E-013
 0.912129E-013
 0.912158E-013
 0.912187E-013
 0.912215E-013
 0.912243E-013
 0.912270E-013
 0.912296E-013
 0.912322E-013
 0.912347E-013
 0.912371E-013
 0.912394E-013
 0.912417E-013
 0.912438E-013
 0.912459E-013
 0.912479E-013
 0.912498E-013
 0.912515E-013
 0.912532E-013
 0.912548E-013
 0.912562E-013
 0.912576E-013
 0.912588E-013
 0.912599E-013
 0.912609E-013
 0.912618E-013
 0.912626E-013
 0.912632E-013
 0.912637E-013
 0.912641E-013
 0.912644E-013
 0.912645E-013
 0.912645E-013
 0.912644E-013
 0.912641E-013
 0.912637E-013
 0.912632E-013
 0.912626E-013
 0.912618E-013
 0.912609E-013
 0.912599E-013
 0.912588E-013
 0.912576E-013
 0.912562E-013
 0.912548E-013
 0.912532E-013
 0.912515E-013
 0.912498E-013
 0.912479E-013
 0.912459E-013
 0.912438E-013
 0.912417E-013
 0.912394E-013
 0.912371E-013
 0.912347E-013
 0.912322E-013
 0.912296E-013
 0.912270E-013
 0.912243E-013
 0.912215E-013
 0.912187E-013
 0.912158E-013
 0.912129E-013
 0.912099E-013
 0.912069E-013
 0.912038E-013
 0.912007E-013
 0.911975E-013
 0.911943E-013
 0.911911E-013
 0.911878E-013
 0.911845E-013
 0.911812E-013
 0.911779E-013
 0.911745E-013
 0.911711E-013
 0.911677E-013
 0.911642E-013
 0.911607E-013
 0.911573E-013
 0.911538E-013
 0.911503E-013
 0.911467E-013
 0.911432E-013
 0.911396E-013
 0.911361E-013
 0.911325E-013
 0.911289E-013
 0.911250E-013
 0.911231E-013
 0.911122E-013
 0.911350E-013
 0.910483E-013
 0.912667E-013
 0.907699E-013
 0.916541E-013
 0.917286E-013
 0.907041E-013
 0.912765E-013
 0.910158E-013
 0.911122E-013
 0.910801E-013
 0.910876E-013
 0.910845E-013
 0.910839E-013
 0.910828E-013
 0.910818E-013
 0.910808E-013
 0.910798E-013
 0.910787E-013
 0.910777E-013
 0.910767E-013
 0.910757E-013
 0.910747E-013
 0.910737E-013
 0.910727E-013
 0.910718E-013
 0.910708E-013
 0.910698E-013
 0.910688E-013
 0.910679E-013
 0.910669E-013
 0.910660E-013
 0.910651E-013
 0.910642E-013
 0.910633E-013
 0.910624E-013
 0.910615E-013
 0.910606E-013
 0.910598E-013
 0.910589E-013
 0.910581E-013
 0.910573E-013
 0.910565E-013
 0.910557E-013
 0.910550E-013
 0.910542E-013
 0.910535E-013
 0.910528E-013
 0.910522E-013
 0.910515E-013
 0.910509E-013
 0.910503E-013
 0.910498E-013
 0.910492E-013
 0.910487E-013
 0.910482E-013
 0.910478E-013
 0.910474E-013
 0.910470E-013
 0.910466E-013
 0.910463E-013
 0.910460E-013
 0.910458E-013
 0.910456E-013
 0.910454E-013
 0.910453E-013
 0.910451E-013
 0.910451E-013
 0.910450E-013
 0.910450E-013
 0.910451E-013
 0.910451E-013
 0.910453E-013
 0.910454E-013
 0.910456E-013
 0.910458E-013
 0.910460E-013
 0.910463E-013
 0.910466E-013
 0.910470E-013
 0.910474E-013
 0.910478E-013
 0.910482E-013
 0.910487E-013
 0.910492E-013
 0.910498E-013
 0.910503E-013
 0.910509E-013
 0.910515E-013
 0.910522E-013
 0.910528E-013
 0.910535E-013
 0.910542E-013
 0.910550E-013
 0.910557E-013
 0.910565E-013
 0.910573E-013
 0.910581E-013
 0.910589E-013
 0.910598E-013
 0.910606E-013
 0.910615E-013
 0.910624E-013
 0.910633E-013
 0.910642E-013
 0.910651E-013
 0.910660E-013
 0.910670E-013
 0.910679E-013
 0.910689E-013
 0.910698E-013
 0.910708E-013
 0.910718E-013
 0.910727E-013
 0.910737E-013
 0.910747E-013
 0.910757E-013
 0.910767E-013
 0.910777E-013
 0.910787E-013
 0.910798E-013
 0.910808E-013
 0.910818E-013
 0.910828E-013
 0.910839E-013
 0.910845E-013
 0.910876E-013
 0.910801E-013
 0.911122E-013
 0.910158E-013
 0.912765E-013
 0.907041E-013
 0.917286E-013
 0.918141E-013
 0.906537E-013
 0.913079E-013
 0.910109E-013
 0.911231E-013
 0.910876E-013
 0.910978E-013
 0.910956E-013
 0.910964E-013
 0.910966E-013
 0.910968E-013
 0.910971E-013
 0.910973E-013
 0.910976E-013
 0.910978E-013
 0.910981E-013
 0.910984E-013
 0.910986E-013
 0.910989E-013
 0.910991E-013
 0.910993E-013
 0.910996E-013
 0.910998E-013
 0.911001E-013
 0.911003E-013
 0.911006E-013
 0.911008E-013
 0.911010E-013
 0.911013E-013
 0.911015E-013
 0.911017E-013
 0.911019E-013
 0.911022E-013
 0.911024E-013
 0.911026E-013
 0.911028E-013
 0.911030E-013
 0.911032E-013
 0.911034E-013
 0.911036E-013
 0.911038E-013
 0.911040E-013
 0.911041E-013
 0.911043E-013
 0.911045E-013
 0.911046E-013
 0.911048E-013
 0.911049E-013
 0.911051E-013
 0.911052E-013
 0.911053E-013
 0.911054E-013
 0.911056E-013
 0.911057E-013
 0.911057E-013
 0.911058E-013
 0.911059E-013
 0.911060E-013
 0.911060E-013
 0.911061E-013
 0.911061E-013
 0.911061E-013
 0.911062E-013
 0.911062E-013
 0.911062E-013
 0.911062E-013
 0.911061E-013
 0.911061E-013
 0.911061E-013
 0.911060E-013
 0.911060E-013
 0.911059E-013
 0.911058E-013
 0.911057E-013
 0.911057E-013
 0.911056E-013
 0.911054E-013
 0.911053E-013
 0.911052E-013
 0.911051E-013
 0.911049E-013
 0.911048E-013
 0.911046E-013
 0.911045E-013
 0.911043E-013
 0.911041E-013
 0.911040E-013
 0.911038E-013
 0.911036E-013
 0.911034E-013
 0.911032E-013
 0.911030E-013
 0.911028E-013
 0.911026E-013
 0.911024E-013
 0.911022E-013
 0.911019E-013
 0.911017E-013
 0.911015E-013
 0.911013E-013
 0.911010E-013
 0.911008E-013
 0.911006E-013
 0.911003E-013
 0.911001E-013
 0.910998E-013
 0.910996E-013
 0.910993E-013
 0.910991E-013
 0.910989E-013
 0.910986E-013
 0.910984E-013
 0.910981E-013
 0.910978E-013
 0.910976E-013
 0.910973E-013
 0.910971E-013
 0.910968E-013
 0.910966E-013
 0.910964E-013
 0.910956E-013
 0.910978E-013
 0.910876E-013
 0.911231E-013
 0.910109E-013
 0.913079E-013
 0.906537E-013
 0.918141E-013
 0.918966E-013
 0.905993E-013
 0.913335E-013
 0.909987E-013
 0.911250E-013
 0.910845E-013
 0.910956E-013
 0.910929E-013
 0.910934E-013
 0.910932E-013
 0.910932E-013
 0.910931E-013
 0.910931E-013
 0.910930E-013
 0.910930E-013
 0.910929E-013
 0.910928E-013
 0.910928E-013
 0.910927E-013
 0.910927E-013
 0.910926E-013
 0.910926E-013
 0.910925E-013
 0.910925E-013
 0.910924E-013
 0.910924E-013
 0.910923E-013
 0.910923E-013
 0.910922E-013
 0.910922E-013
 0.910921E-013
 0.910921E-013
 0.910920E-013
 0.910920E-013
 0.910919E-013
 0.910919E-013
 0.910919E-013
 0.910918E-013
 0.910918E-013
 0.910917E-013
 0.910917E-013
 0.910917E-013
 0.910916E-013
 0.910916E-013
 0.910916E-013
 0.910915E-013
 0.910915E-013
 0.910915E-013
 0.910915E-013
 0.910914E-013
 0.910914E-013
 0.910914E-013
 0.910914E-013
 0.910914E-013
 0.910914E-013
 0.910913E-013
 0.910913E-013
 0.910913E-013
 0.910913E-013
 0.910913E-013
 0.910913E-013
 0.910913E-013
 0.910913E-013
 0.910913E-013
 0.910913E-013
 0.910913E-013
 0.910913E-013
 0.910913E-013
 0.910913E-013
 0.910913E-013
 0.910913E-013
 0.910913E-013
 0.910913E-013
 0.910914E-013
 0.910914E-013
 0.910914E-013
 0.910914E-013
 0.910914E-013
 0.910914E-013
 0.910915E-013
 0.910915E-013
 0.910915E-013
 0.910915E-013
 0.910916E-013
 0.910916E-013
 0.910916E-013
 0.910917E-013
 0.910917E-013
 0.910917E-013
 0.910918E-013
 0.910918E-013
 0.910919E-013
 0.910919E-013
 0.910919E-013
 0.910920E-013
 0.910920E-013
 0.910921E-013
 0.910921E-013
 0.910922E-013
 0.910922E-013
 0.910923E-013
 0.910923E-013
 0.910924E-013
 0.910924E-013
 0.910925E-013
 0.910925E-013
 0.910926E-013
 0.910926E-013
 0.910927E-013
 0.910927E-013
 0.910928E-013
 0.910928E-013
 0.910929E-013
 0.910930E-013
 0.910930E-013
 0.910931E-013
 0.910931E-013
 0.910932E-013
 0.910932E-013
 0.910934E-013
 0.910929E-013
 0.910956E-013
 0.910845E-013
 0.911250E-013
 0.909987E-013
 0.913335E-013
 0.905994E-013
 0.918966E-013
 0.919795E-013
 0.905461E-013
 0.913604E-013
 0.909883E-013
 0.911289E-013
 0.910839E-013
 0.910964E-013
 0.910934E-013
 0.910941E-013
 0.910939E-013
 0.910940E-013
 0.910940E-013
 0.910940E-013
 0.910940E-013
 0.910940E-013
 0.910940E-013
 0.910940E-013
 0.910940E-013
 0.910941E-013
 0.910941E-013
 0.910941E-013
 0.910941E-013
 0.910941E-013
 0.910941E-013
 0.910941E-013
 0.910941E-013
 0.910942E-013
 0.910942E-013
 0.910942E-013
 0.910942E-013
 0.910942E-013
 0.910942E-013
 0.910942E-013
 0.910942E-013
 0.910943E-013
 0.910943E-013
 0.910943E-013
 0.910943E-013
 0.910943E-013
 0.910943E-013
 0.910943E-013
 0.910944E-013
 0.910944E-013
 0.910944E-013
 0.910944E-013
 0.910944E-013
 0.910944E-013
 0.910944E-013
 0.910944E-013
 0.910945E-013
 0.910945E-013
 0.910945E-013
 0.910945E-013
 0.910945E-013
 0.910945E-013
 0.910945E-013
 0.910945E-013
 0.910945E-013
 0.910945E-013
 0.910945E-013
 0.910945E-013
 0.910945E-013
 0.910945E-013
 0.910945E-013
 0.910945E-013
 0.910945E-013
 0.910945E-013
 0.910945E-013
 0.910945E-013
 0.910945E-013
 0.910945E-013
 0.910945E-013
 0.910945E-013
 0.910945E-013
 0.910945E-013
 0.910945E-013
 0.910945E-013
 0.910945E-013
 0.910945E-013
 0.910944E-013
 0.910944E-013
 0.910944E-013
 0.910944E-013
 0.910944E-013
 0.910944E-013
 0.910944E-013
 0.910944E-013
 0.910943E-013
 0.910943E-013
 0.910943E-013
 0.910943E-013
 0.910943E-013
 0.910943E-013
 0.910943E-013
 0.910942E-013
 0.910942E-013
 0.910942E-013
 0.910942E-013
 0.910942E-013
 0.910942E-013
 0.910942E-013
 0.910942E-013
 0.910941E-013
 0.910941E-013
 0.910941E-013
 0.910941E-013
 0.910941E-013
 0.910941E-013
 0.910941E-013
 0.910941E-013
 0.910940E-013
 0.910940E-013
 0.910940E-013
 0.910940E-013
 0.910940E-013
 0.910940E-013
 0.910940E-013
 0.910940E-013
 0.910939E-013
 0.910941E-013
 0.910934E-013
 0.910964E-013
 0.910839E-013
 0.911289E-013
 0.909883E-013
 0.913604E-013
 0.905461E-013
 0.919795E-013
 0.920619E-013
 0.904929E-013
 0.913870E-013
 0.909775E-013
 0.911325E-013
 0.910828E-013
 0.910966E-013
 0.910932E-013
 0.910939E-013
 0.910938E-013
 0.910938E-013
 0.910938E-013
 0.910938E-013
 0.910938E-013
 0.910938E-013
 0.910938E-013
 0.910938E-013
 0.910938E-013
 0.910938E-013
 0.910938E-013
 0.910938E-013
 0.910938E-013
 0.910938E-013
 0.910938E-013
 0.910938E-013
 0.910938E-013
 0.910938E-013
 0.910938E-013
 0.910938E-013
 0.910938E-013
 0.910938E-013
 0.910938E-013
 0.910938E-013
 0.910938E-013
 0.910938E-013
 0.910938E-013
 0.910938E-013
 0.910938E-013
 0.910938E-013
 0.910938E-013
 0.910938E-013
 0.910938E-013
 0.910939E-013
 0.910939E-013
 0.910939E-013
 0.910939E-013
 0.910939E-013
 0.910939E-013
 0.910939E-013
 0.910939E-013
 0.910939E-013
 0.910939E-013
 0.910939E-013
 0.910939E-013
 0.910939E-013
 0.910939E-013
 0.910939E-013
 0.910939E-013
 0.910939E-013
 0.910939E-013
 0.910939E-013
 0.910939E-013
 0.910939E-013
 0.910939E-013
 0.910939E-013
 0.910939E-013
 0.910939E-013
 0.910939E-013
 0.910939E-013
 0.910939E-013
 0.910939E-013
 0.910939E-013
 0.910939E-013
 0.910939E-013
 0.910939E-013
 0.910939E-013
 0.910939E-013
 0.910939E-013
 0.910939E-013
 0.910939E-013
 0.910939E-013
 0.910939E-013
 0.910939E-013
 0.910939E-013
 0.910939E-013
 0.910939E-013
 0.910938E-013
 0.910938E-013
 0.910938E-013
 0.910938E-013
 0.910938E-013
 0.910938E-013
 0.910938E-013
 0.910938E-013
 0.910938E-013
 0.910938E-013
 0.910938E-013
 0.910938E-013
 0.910938E-013
 0.910938E-013
 0.910938E-013
 0.910938E-013
 0.910938E-013
 0.910938E-013
 0.910938E-013
 0.910938E-013
 0.910938E-013
 0.910938E-013
 0.910938E-013
 0.910938E-013
 0.910938E-013
 0.910938E-013
 0.910938E-013
 0.910938E-013
 0.910938E-013
 0.910938E-013
 0.910938E-013
 0.910938E-013
 0.910938E-013
 0.910939E-013
 0.910932E-013
 0.910966E-013
 0.910828E-013
 0.911325E-013
 0.909776E-013
 0.913869E-013
 0.904929E-013
 0.920620E-013
 0.921442E-013
 0.904398E-013
 0.914135E-013
 0.909669E-013
 0.911361E-013
 0.910818E-013
 0.910968E-013
 0.910932E-013
 0.910940E-013
 0.910938E-013
 0.910938E-013
 0.910938E-013
 0.910938E-013
 0.910938E-013
 0.910938E-013
 0.910938E-013
 0.910938E-013
 0.910938E-013
 0.910938E-013
 0.910939E-013
 0.910939E-013
 0.910939E-013
 0.910939E-013
 0.910939E-013
 0.910939E-013
 0.910939E-013
 0.910939E-013
 0.910939E-013
 0.910939E-013
 0.910939E-013
 0.910939E-013
 0.910939E-013
 0.910939E-013
 0.910939E-013
 0.910939E-013
 0.910939E-013
 0.910939E-013
 0.910939E-013
 0.910939E-013
 0.910939E-013
 0.910939E-013
 0.910940E-013
 0.910940E-013
 0.910940E-013
 0.910940E-013
 0.910940E-013
 0.910940E-013
 0.910940E-013
 0.910940E-013