# vtk DataFile Version 3.0
Solution data
ASCII
DATASET STRUCTURED_GRID
DIMENSIONS 128 128 1
POINTS 16384  double
      0.000004      0.000004      0.000000
      0.000012      0.000004      0.000000
      0.000020      0.000004      0.000000
      0.000027      0.000004      0.000000
      0.000035      0.000004      0.000000
      0.000043      0.000004      0.000000
      0.000051      0.000004      0.000000
      0.000059      0.000004      0.000000
      0.000066      0.000004      0.000000
      0.000074      0.000004      0.000000
      0.000082      0.000004      0.000000
      0.000090      0.000004      0.000000
      0.000098      0.000004      0.000000
      0.000105      0.000004      0.000000
      0.000113      0.000004      0.000000
      0.000121      0.000004      0.000000
      0.000129      0.000004      0.000000
      0.000137      0.000004      0.000000
      0.000145      0.000004      0.000000
      0.000152      0.000004      0.000000
      0.000160      0.000004      0.000000
      0.000168      0.000004      0.000000
      0.000176      0.000004      0.000000
      0.000184      0.000004      0.000000
      0.000191      0.000004      0.000000
      0.000199      0.000004      0.000000
      0.000207      0.000004      0.000000
      0.000215      0.000004      0.000000
      0.000223      0.000004      0.000000
      0.000230      0.000004      0.000000
      0.000238      0.000004      0.000000
      0.000246      0.000004      0.000000
      0.000254      0.000004      0.000000
      0.000262      0.000004      0.000000
      0.000270      0.000004      0.000000
      0.000277      0.000004      0.000000
      0.000285      0.000004      0.000000
      0.000293      0.000004      0.000000
      0.000301      0.000004      0.000000
      0.000309      0.000004      0.000000
      0.000316      0.000004      0.000000
      0.000324      0.000004      0.000000
      0.000332      0.000004      0.000000
      0.000340      0.000004      0.000000
      0.000348      0.000004      0.000000
      0.000355      0.000004      0.000000
      0.000363      0.000004      0.000000
      0.000371      0.000004      0.000000
      0.000379      0.000004      0.000000
      0.000387      0.000004      0.000000
      0.000395      0.000004      0.000000
      0.000402      0.000004      0.000000
      0.000410      0.000004      0.000000
      0.000418      0.000004      0.000000
      0.000426      0.000004      0.000000
      0.000434      0.000004      0.000000
      0.000441      0.000004      0.000000
      0.000449      0.000004      0.000000
      0.000457      0.000004      0.000000
      0.000465      0.000004      0.000000
      0.000473      0.000004      0.000000
      0.000480      0.000004      0.000000
      0.000488      0.000004      0.000000
      0.000496      0.000004      0.000000
      0.000504      0.000004      0.000000
      0.000512      0.000004      0.000000
      0.000520      0.000004      0.000000
      0.000527      0.000004      0.000000
      0.000535      0.000004      0.000000
      0.000543      0.000004      0.000000
      0.000551      0.000004      0.000000
      0.000559      0.000004      0.000000
      0.000566      0.000004      0.000000
      0.000574      0.000004      0.000000
      0.000582      0.000004      0.000000
      0.000590      0.000004      0.000000
      0.000598      0.000004      0.000000
      0.000605      0.000004      0.000000
      0.000613      0.000004      0.000000
      0.000621      0.000004      0.000000
      0.000629      0.000004      0.000000
      0.000637      0.000004      0.000000
      0.000645      0.000004      0.000000
      0.000652      0.000004      0.000000
      0.000660      0.000004      0.000000
      0.000668      0.000004      0.000000
      0.000676      0.000004      0.000000
      0.000684      0.000004      0.000000
      0.000691      0.000004      0.000000
      0.000699      0.000004      0.000000
      0.000707      0.000004      0.000000
      0.000715      0.000004      0.000000
      0.000723      0.000004      0.000000
      0.000730      0.000004      0.000000
      0.000738      0.000004      0.000000
      0.000746      0.000004      0.000000
      0.000754      0.000004      0.000000
      0.000762      0.000004      0.000000
      0.000770      0.000004      0.000000
      0.000777      0.000004      0.000000
      0.000785      0.000004      0.000000
      0.000793      0.000004      0.000000
      0.000801      0.000004      0.000000
      0.000809      0.000004      0.000000
      0.000816      0.000004      0.000000
      0.000824      0.000004      0.000000
      0.000832      0.000004      0.000000
      0.000840      0.000004      0.000000
      0.000848      0.000004      0.000000
      0.000855      0.000004      0.000000
      0.000863      0.000004      0.000000
      0.000871      0.000004      0.000000
      0.000879      0.000004      0.000000
      0.000887      0.000004      0.000000
      0.000895      0.000004      0.000000
      0.000902      0.000004      0.000000
      0.000910      0.000004      0.000000
      0.000918      0.000004      0.000000
      0.000926      0.000004      0.000000
      0.000934      0.000004      0.000000
      0.000941      0.000004      0.000000
      0.000949      0.000004      0.000000
      0.000957      0.000004      0.000000
      0.000965      0.000004      0.000000
      0.000973      0.000004      0.000000
      0.000980      0.000004      0.000000
      0.000988      0.000004      0.000000
      0.000996      0.000004      0.000000
      0.000004      0.000012      0.000000
      0.000012      0.000012      0.000000
      0.000020      0.000012      0.000000
      0.000027      0.000012      0.000000
      0.000035      0.000012      0.000000
      0.000043      0.000012      0.000000
      0.000051      0.000012      0.000000
      0.000059      0.000012      0.000000
      0.000066      0.000012      0.000000
      0.000074      0.000012      0.000000
      0.000082      0.000012      0.000000
      0.000090      0.000012      0.000000
      0.000098      0.000012      0.000000
      0.000105      0.000012      0.000000
      0.000113      0.000012      0.000000
      0.000121      0.000012      0.000000
      0.000129      0.000012      0.000000
      0.000137      0.000012      0.000000
      0.000145      0.000012      0.000000
      0.000152      0.000012      0.000000
      0.000160      0.000012      0.000000
      0.000168      0.000012      0.000000
      0.000176      0.000012      0.000000
      0.000184      0.000012      0.000000
      0.000191      0.000012      0.000000
      0.000199      0.000012      0.000000
      0.000207      0.000012      0.000000
      0.000215      0.000012      0.000000
      0.000223      0.000012      0.000000
      0.000230      0.000012      0.000000
      0.000238      0.000012      0.000000
      0.000246      0.000012      0.000000
      0.000254      0.000012      0.000000
      0.000262      0.000012      0.000000
      0.000270      0.000012      0.000000
      0.000277      0.000012      0.000000
      0.000285      0.000012      0.000000
      0.000293      0.000012      0.000000
      0.000301      0.000012      0.000000
      0.000309      0.000012      0.000000
      0.000316      0.000012      0.000000
      0.000324      0.000012      0.000000
      0.000332      0.000012      0.000000
      0.000340      0.000012      0.000000
      0.000348      0.000012      0.000000
      0.000355      0.000012      0.000000
      0.000363      0.000012      0.000000
      0.000371      0.000012      0.000000
      0.000379      0.000012      0.000000
      0.000387      0.000012      0.000000
      0.000395      0.000012      0.000000
      0.000402      0.000012      0.000000
      0.000410      0.000012      0.000000
      0.000418      0.000012      0.000000
      0.000426      0.000012      0.000000
      0.000434      0.000012      0.000000
      0.000441      0.000012      0.000000
      0.000449      0.000012      0.000000
      0.000457      0.000012      0.000000
      0.000465      0.000012      0.000000
      0.000473      0.000012      0.000000
      0.000480      0.000012      0.000000
      0.000488      0.000012      0.000000
      0.000496      0.000012      0.000000
      0.000504      0.000012      0.000000
      0.000512      0.000012      0.000000
      0.000520      0.000012      0.000000
      0.000527      0.000012      0.000000
      0.000535      0.000012      0.000000
      0.000543      0.000012      0.000000
      0.000551      0.000012      0.000000
      0.000559      0.000012      0.000000
      0.000566      0.000012      0.000000
      0.000574      0.000012      0.000000
      0.000582      0.000012      0.000000
      0.000590      0.000012      0.000000
      0.000598      0.000012      0.000000
      0.000605      0.000012      0.000000
      0.000613      0.000012      0.000000
      0.000621      0.000012      0.000000
      0.000629      0.000012      0.000000
      0.000637      0.000012      0.000000
      0.000645      0.000012      0.000000
      0.000652      0.000012      0.000000
      0.000660      0.000012      0.000000
      0.000668      0.000012      0.000000
      0.000676      0.000012      0.000000
      0.000684      0.000012      0.000000
      0.000691      0.000012      0.000000
      0.000699      0.000012      0.000000
      0.000707      0.000012      0.000000
      0.000715      0.000012      0.000000
      0.000723      0.000012      0.000000
      0.000730      0.000012      0.000000
      0.000738      0.000012      0.000000
      0.000746      0.000012      0.000000
      0.000754      0.000012      0.000000
      0.000762      0.000012      0.000000
      0.000770      0.000012      0.000000
      0.000777      0.000012      0.000000
      0.000785      0.000012      0.000000
[...]
POINT_DATA 16384
SCALARS rhoe double
LOOKUP_TABLE default
 0.913010E-013
 0.912619E-013
 0.913557E-013
 0.914339E-013
 0.915133E-013
 0.915926E-013
 0.916717E-013
 0.917508E-013
 0.918297E-013
 0.919086E-013
 0.919873E-013
 0.920658E-013
 0.921443E-013
 0.922225E-013
 0.923006E-013
 0.923785E-013
 0.924563E-013
 0.925337E-013
 0.926110E-013
 0.926879E-013
 0.927646E-013
 0.928409E-013
 0.929168E-013
 0.929923E-013
 0.930673E-013
 0.931419E-013
 0.932159E-013
 0.932893E-013
 0.933620E-013
 0.934341E-013
 0.935053E-013
 0.935757E-013
 0.936452E-013
 0.937138E-013
 0.937813E-013
 0.938476E-013
 0.939128E-013
 0.939767E-013
 0.940392E-013
 0.941003E-013
 0.941598E-013
 0.942178E-013
 0.942740E-013
 0.943284E-013
 0.943810E-013
 0.944315E-013
 0.944800E-013
 0.945264E-013
 0.945706E-013
 0.946124E-013
 0.946519E-013
 0.946889E-013
 0.947233E-013
 0.947552E-013
 0.947843E-013
 0.948108E-013
 0.948344E-013
 0.948552E-013
 0.948731E-013
 0.948881E-013
 0.949002E-013
 0.949092E-013
 0.949152E-013
 0.949183E-013
 0.949182E-013
 0.949152E-013
 0.949092E-013
 0.949001E-013
 0.948880E-013
 0.948730E-013
 0.948551E-013
 0.948343E-013
 0.948106E-013
 0.947842E-013
 0.947550E-013
 0.947231E-013
 0.946886E-013
 0.946516E-013
 0.946122E-013
 0.945703E-013
 0.945261E-013
 0.944798E-013
 0.944312E-013
 0.943806E-013
 0.943281E-013
 0.942736E-013
 0.942174E-013
 0.941595E-013
 0.940999E-013
 0.940388E-013
 0.939763E-013
 0.939124E-013
 0.938472E-013
 0.937809E-013
 0.937134E-013
 0.936448E-013
 0.935753E-013
 0.935049E-013
 0.934337E-013
 0.933616E-013
 0.932889E-013
 0.932155E-013
 0.931415E-013
 0.930669E-013
 0.929919E-013
 0.929164E-013
 0.928405E-013
 0.927642E-013
 0.926876E-013
 0.926106E-013
 0.925334E-013
 0.924559E-013
 0.923782E-013
 0.923003E-013
 0.922222E-013
 0.921440E-013
 0.920656E-013
 0.919870E-013
 0.919083E-013
 0.918295E-013
 0.917506E-013
 0.916716E-013
 0.915924E-013
 0.915132E-013
 0.914338E-013
 0.913556E-013
 0.912618E-013
 0.913010E-013
 0.912619E-013
 0.910467E-013
 0.910616E-013
 0.910486E-013
 0.910380E-013
 0.910273E-013
 0.910166E-013
 0.910059E-013
 0.909953E-013
 0.909846E-013
 0.909740E-013
 0.909635E-013
 0.909529E-013
 0.909424E-013
 0.909319E-013
 0.909214E-013
 0.909110E-013
 0.909006E-013
 0.908903E-013
 0.908800E-013
 0.908697E-013
 0.908595E-013
 0.908494E-013
 0.908393E-013
 0.908293E-013
 0.908194E-013
 0.908095E-013
 0.907998E-013
 0.907901E-013
 0.907806E-013
 0.907711E-013
 0.907618E-013
 0.907526E-013
 0.907435E-013
 0.907346E-013
 0.907258E-013
 0.907172E-013
 0.907088E-013
 0.907006E-013
 0.906925E-013
 0.906847E-013
 0.906771E-013
 0.906697E-013
 0.906626E-013
 0.906557E-013
 0.906491E-013
 0.906427E-013
 0.906367E-013
 0.906309E-013
 0.906255E-013
 0.906203E-013
 0.906155E-013
 0.906110E-013
 0.906069E-013
 0.906031E-013
 0.905996E-013
 0.905966E-013
 0.905939E-013
 0.905915E-013
 0.905896E-013
 0.905880E-013
 0.905869E-013
 0.905861E-013
 0.905857E-013
 0.905857E-013
 0.905861E-013
 0.905869E-013
 0.905880E-013
 0.905896E-013
 0.905915E-013
 0.905939E-013
 0.905966E-013
 0.905996E-013
 0.906031E-013
 0.906069E-013
 0.906110E-013
 0.906155E-013
 0.906203E-013
 0.906255E-013
 0.906309E-013
 0.906367E-013
 0.906428E-013
 0.906491E-013
 0.906557E-013
 0.906626E-013
 0.906697E-013
 0.906771E-013
 0.906847E-013
 0.906925E-013
 0.907006E-013
 0.907088E-013
 0.907172E-013
 0.907258E-013
 0.907346E-013
 0.907435E-013
 0.907526E-013
 0.907618E-013
 0.907711E-013
 0.907806E-013
 0.907901E-013
 0.907998E-013
 0.908095E-013
 0.908194E-013
 0.908293E-013
 0.908393E-013
 0.908494E-013
 0.908595E-013
 0.908697E-013
 0.908800E-013
 0.908903E-013
 0.909006E-013
 0.909110E-013
 0.909214E-013
 0.909319E-013
 0.909424E-013
 0.909529E-013
 0.909635E-013
 0.909740E-013
 0.909846E-013
 0.909953E-013
 0.910059E-013
 0.910166E-013
 0.910273E-013
 0.910380E-013
 0.910486E-013
 0.910616E-013
 0.910467E-013
 0.912618E-013
 0.913557E-013
 0.910616E-013
 0.911000E-013
 0.910977E-013
 0.910989E-013
 0.910998E-013
 0.911008E-013
 0.911018E-013
 0.911027E-013
 0.911037E-013
 0.911047E-013
 0.911056E-013
 0.911066E-013
 0.911075E-013
 0.911085E-013
 0.911094E-013
 0.911104E-013
 0.911113E-013
 0.911123E-013
 0.911132E-013
 0.911142E-013
 0.911151E-013
 0.911160E-013
 0.911170E-013
 0.911179E-013
 0.911188E-013
 0.911197E-013
 0.911206E-013
 0.911215E-013
 0.911224E-013
 0.911233E-013
 0.911242E-013
 0.911250E-013
 0.911259E-013
 0.911268E-013
 0.911276E-013
 0.911284E-013
 0.911292E-013
 0.911300E-013
 0.911308E-013
 0.911316E-013
 0.911323E-013
 0.911331E-013
 0.911338E-013
 0.911345E-013
 0.911351E-013
 0.911358E-013
 0.911364E-013
 0.911370E-013
 0.911375E-013
 0.911380E-013
 0.911385E-013
 0.911390E-013
 0.911394E-013
 0.911398E-013
 0.911402E-013
 0.911405E-013
 0.911408E-013
 0.911410E-013
 0.911412E-013
 0.911414E-013
 0.911415E-013
 0.911416E-013
 0.911417E-013
 0.911417E-013
 0.911416E-013
 0.911415E-013
 0.911414E-013
 0.911412E-013
 0.911410E-013
 0.911408E-013
 0.911405E-013
 0.911402E-013
 0.911398E-013
 0.911394E-013
 0.911390E-013
 0.911385E-013
 0.911380E-013
 0.911375E-013
 0.911370E-013
 0.911364E-013
 0.911358E-013
 0.911351E-013
 0.911345E-013
 0.911338E-013
 0.911331E-013
 0.911323E-013
 0.911316E-013
 0.911308E-013
 0.911300E-013
 0.911292E-013
 0.911284E-013
 0.911276E-013
 0.911268E-013
 0.911259E-013
 0.911251E-013
 0.911242E-013
 0.911233E-013
 0.911224E-013
 0.911215E-013
 0.911206E-013
 0.911197E-013
 0.911188E-013
 0.911179E-013
 0.911170E-013
 0.911160E-013
 0.911151E-013
 0.911142E-013
 0.911132E-013
 0.911123E-013
 0.911113E-013
 0.911104E-013
 0.911094E-013
 0.911085E-013
 0.911075E-013
 0.911066E-013
 0.911056E-013
 0.911047E-013
 0.911037E-013
 0.911027E-013
 0.911018E-013
 0.911008E-013
 0.910998E-013
 0.910989E-013
 0.910977E-013
 0.911000E-013
 0.910616E-013
 0.913556E-013
 0.914339E-013
 0.910486E-013
 0.910977E-013
 0.910933E-013
 0.910935E-013
 0.910934E-013
 0.910934E-013
 0.910933E-013
 0.910932E-013
 0.910932E-013
 0.910931E-013
 0.910930E-013
 0.910930E-013
 0.910929E-013
 0.910929E-013
 0.910928E-013
 0.910927E-013
 0.910927E-013
 0.910926E-013
 0.910926E-013
 0.910925E-013
 0.910925E-013
 0.910924E-013
 0.910924E-013
 0.910924E-013
 0.910923E-013
 0.910923E-013
 0.910923E-013
 0.910922E-013
 0.910922E-013
 0.910922E-013
 0.910922E-013
 0.910922E-013
 0.910922E-013
 0.910922E-013
 0.910922E-013
 0.910922E-013
 0.910922E-013
 0.910922E-013
 0.910922E-013
 0.910922E-013
 0.910923E-013
 0.910923E-013
 0.910923E-013
 0.910924E-013
 0.910924E-013
 0.910924E-013
 0.910925E-013
 0.910925E-013
 0.910926E-013
 0.910926E-013
 0.910926E-013
 0.910927E-013
 0.910927E-013
 0.910928E-013
 0.910928E-013
 0.910928E-013
 0.910929E-013
 0.910929E-013
 0.910929E-013
 0.910929E-013
 0.910929E-013
 0.910930E-013
 0.910930E-013
 0.910930E-013
 0.910930E-013
 0.910929E-013
 0.910929E-013
 0.910929E-013
 0.910929E-013
 0.910929E-013
 0.910928E-013
 0.910928E-013
 0.910928E-013
 0.910927E-013
 0.910927E-013
 0.910927E-013
 0.910926E-013
 0.910926E-013
 0.910925E-013
 0.910925E-013
 0.910924E-013
 0.910924E-013
 0.910924E-013
 0.910923E-013
 0.910923E-013
 0.910923E-013
 0.910922E-013
 0.910922E-013
 0.910922E-013
 0.910922E-013
 0.910922E-013
 0.910922E-013
 0.910922E-013
 0.910922E-013
 0.910922E-013
 0.910922E-013
 0.910922E-013
 0.910922E-013
 0.910922E-013
 0.910923E-013
 0.910923E-013
 0.910923E-013
 0.910924E-013
 0.910924E-013
 0.910925E-013
 0.910925E-013
 0.910925E-013
 0.910926E-013
 0.910926E-013
 0.910927E-013
 0.910927E-013
 0.910928E-013
 0.910929E-013
 0.910929E-013
 0.910930E-013
 0.910930E-013
 0.910931E-013
 0.910932E-013
 0.910932E-013
 0.910933E-013
 0.910934E-013
 0.910934E-013
 0.910935E-013
 0.910933E-013
 0.910977E-013
 0.910486E-013
 0.914338E-013
 0.915133E-013
 0.910380E-013
 0.910989E-013
 0.910935E-013
 0.910939E-013
 0.910939E-013
 0.910939E-013
 0.910939E-013
 0.910939E-013
 0.910939E-013
 0.910939E-013
 0.910939E-013
 0.910939E-013
 0.910939E-013
 0.910939E-013
 0.910939E-013
 0.910939E-013
 0.910940E-013
 0.910940E-013
 0.910940E-013
 0.910940E-013
 0.910940E-013
 0.910941E-013
 0.910941E-013
 0.910941E-013
 0.910942E-013
 0.910942E-013
 0.910942E-013
 0.910943E-013
 0.910943E-013
 0.910944E-013
 0.910944E-013
 0.910945E-013
 0.910946E-013
 0.910946E-013
 0.910947E-013
 0.910948E-013
 0.910948E-013
 0.910949E-013
 0.910950E-013
 0.910951E-013
 0.910952E-013
 0.910953E-013
 0.910954E-013
 0.910955E-013
 0.910956E-013
 0.910957E-013
 0.910958E-013
 0.910959E-013
 0.910959E-013
 0.910960E-013
 0.910961E-013
 0.910962E-013
 0.910963E-013
 0.910964E-013
 0.910964E-013
 0.910965E-013
 0.910966E-013
 0.910966E-013
 0.910966E-013
 0.910967E-013
 0.910967E-013
 0.910967E-013
 0.910967E-013
 0.910967E-013
 0.910967E-013
 0.910967E-013
 0.910967E-013
 0.910967E-013
 0.910966E-013
 0.910966E-013
 0.910965E-013
 0.910964E-013
 0.910964E-013
 0.910963E-013
 0.910962E-013
 0.910961E-013
 0.910960E-013
 0.910959E-013
 0.910959E-013
 0.910958E-013
 0.910957E-013
 0.910956E-013
 0.910955E-013
 0.910954E-013
 0.910953E-013
 0.910952E-013
 0.910951E-013
 0.910950E-013
 0.910949E-013
 0.910948E-013
 0.910948E-013
 0.910947E-013
 0.910946E-013
 0.910946E-013
 0.910945E-013
 0.910944E-013
 0.910944E-013
 0.910943E-013
 0.910943E-013
 0.910942E-013
 0.910942E-013
 0.910942E-013
 0.910941E-013
 0.910941E-013
 0.910941E-013
 0.910940E-013
 0.910940E-013
 0.910940E-013
 0.910940E-013
 0.910940E-013
 0.910939E-013
 0.910939E-013
 0.910939E-013
 0.910939E-013
 0.910939E-013
 0.910939E-013
 0.910939E-013
 0.910939E-013
 0.910939E-013
 0.910939E-013
 0.910939E-013
 0.910939E-013
 0.910939E-013
 0.910935E-013
 0.910989E-013
 0.910380E-013
 0.915132E-013
 0.915926E-013
 0.910273E-013
 0.910998E-013
 0.910934E-013
 0.910939E-013
 0.910938E-013
 0.910938E-013
 0.910938E-013
 0.910938E-013
 0.910938E-013
 0.910938E-013
 0.910938E-013
 0.910939E-013
 0.910939E-013
 0.910939E-013
 0.910939E-013
 0.910939E-013
 0.910939E-013
 0.910939E-013
 0.910939E-013
 0.910940E-013
 0.910940E-013
 0.910940E-013
 0.910940E-013
 0.910941E-013
 0.910941E-013
 0.910941E-013
 0.910942E-013
 0.910942E-013
 0.910943E-013
 0.910943E-013
 0.910944E-013
 0.910945E-013
 0.910945E-013
 0.910946E-013
 0.910947E-013
 0.910948E-013
 0.910949E-013
 0.910950E-013
 0.910951E-013
 0.910952E-013
 0.910953E-013
 0.910954E-013
 0.910955E-013
 0.910956E-013
 0.910957E-013
 0.910958E-013
 0.910959E-013
 0.910961E-013
 0.910962E-013
 0.910963E-013
 0.910964E-013
 0.910965E-013
 0.910966E-013
 0.910967E-013
 0.910967E-013
 0.910968E-013
 0.910969E-013
 0.910969E-013
 0.910970E-013
 0.910970E-013
 0.910971E-013
 0.910971E-013
 0.910971E-013
 0.910971E-013
 0.910971E-013
 0.910971E-013
 0.910970E-013
 0.910970E-013
 0.910969E-013
 0.910969E-013
 0.910968E-013
 0.910967E-013
 0.910967E-013
 0.910966E-013
 0.910965E-013
 0.910964E-013
 0.910963E-013
 0.910962E-013
 0.910961E-013
 0.910960E-013
 0.910958E-013
 0.910957E-013
 0.910956E-013
 0.910955E-013
 0.910954E-013
 0.910953E-013
 0.910952E-013
 0.910951E-013
 0.910950E-013
 0.910949E-013
 0.910948E-013
 0.910947E-013
 0.910946E-013
 0.910946E-013
 0.910945E-013
 0.910944E-013
 0.910944E-013
 0.910943E-013
 0.910942E-013
 0.910942E-013
 0.910942E-013
 0.910941E-013
 0.910941E-013
 0.910940E-013
 0.910940E-013
 0.910940E-013
 0.910940E-013
 0.910939E-013
 0.910939E-013
 0.910939E-013
 0.910939E-013
 0.910939E-013
 0.910939E-013
 0.910939E-013
 0.910939E-013
 0.910939E-013
 0.910938E-013
 0.910938E-013
 0.910938E-013
 0.910938E-013
 0.910938E-013
 0.910938E-013
 0.910939E-013
 0.910934E-013
 0.910998E-013
 0.910273E-013
 0.915924E-013
 0.916717E-013
 0.910166E-013
 0.911008E-013
 0.910934E-013
 0.910939E-013
 0.910938E-013
 0.910938E-013
 0.910938E-013
 0.910938E-013
 0.910938E-013
 0.910938E-013
 0.910939E-013
 0.910939E-013
 0.910939E-013
 0.910939E-013
 0.910939E-013
 0.910939E-013
 0.910939E-013
 0.910939E-013
 0.910940E-013
 0.910940E-013
 0.910940E-013
 0.910940E-013
 0.910941E-013
 0.910941E-013
 0.910942E-013
 0.910942E-013
 0.910943E-013
 0.910943E-013
 0.910944E-013
 0.910945E-013
 0.910945E-013
 0.910946E-013
 0.910947E-013
 0.910948E-013
 0.910949E-013
 0.910950E-013
 0.910951E-013
 0.910952E-013
 0.910953E-013
 0.910955E-013
 0.910956E-013
 0.910957E-013
 0.910958E-013
 0.910960E-013
 0.910961E-013
 0.910962E-013
 0.910964E-013
 0.910965E-013
 0.910966E-013
 0.910968E-013
 0.910969E-013
 0.910970E-013
 0.910971E-013
 0.910972E-013
 0.910973E-013
 0.910974E-013
 0.910975E-013
 0.910976E-013
 0.910976E-013
 0.910977E-013
 0.910977E-013
 0.910977E-013
 0.910978E-013
 0.910978E-013
 0.910977E-013
 0.910977E-013
 0.910977E-013
 0.910976E-013
 0.910976E-013
 0.910975E-013
 0.910974E-013
 0.910973E-013
 0.910972E-013
 0.910971E-013
 0.910970E-013
 0.910969E-013
 0.910968E-013
 0.910966E-013
 0.910965E-013
 0.910964E-013
 0.910962E-013
 0.910961E-013
 0.910960E-013
 0.910958E-013
 0.910957E-013
 0.910956E-013
 0.910955E-013
 0.910953E-013
 0.910952E-013
 0.910951E-013
 0.910950E-013
 0.910949E-013
 0.910948E-013
 0.910947E-013
 0.910946E-013
 0.910945E-013
 0.910945E-013
 0.910944E-013
 0.910943E-013
 0.910943E-013
 0.910942E-013
 0.910942E-013
 0.910941E-013
 0.910941E-013
 0.910941E-013
 0.910940E-013
 0.910940E-013
 0.910940E-013
 0.910939E-013
 0.910939E-013
 0.910939E-013
 0.910939E-013
 0.910939E-013
 0.910939E-013
 0.910939E-013
 0.910939E-013
 0.910939E-013
 0.910939E-013
 0.910938E-013
 0.910938E-013
 0.910938E-013
 0.910938E-013
 0.910939E-013
 0.910934E-013
 0.911008E-013
 0.910166E-013
 0.916716E-013
 0.917508E-013
 0.910059E-013
 0.911018E-013
 0.910933E-013
 0.910939E-013
 0.910938E-013
 0.910938E-013
 0.910938E-013
 0.910938E-013
 0.910938E-013
 0.910939E-013
 0.910939E-013
 0.910939E-013
 0.910939E-013
 0.910939E-013
 0.910939E-013
 0.910939E-013
 0.910939E-013
 0.910940E-013
 0.910940E-013
 0.910940E-013
 0.910941E-013
 0.910941E-013
 0.910941E-013
 0.910942E-013
 0.910942E-013
 0.910943E-013
 0.910944E-013
 0.910944E-013
 0.910945E-013
 0.910946E-013
 0.910947E-013
 0.910948E-013
 0.910949E-013
 0.910950E-013
 0.910951E-013
 0.910952E-013
 0.910954E-013
 0.910955E-013
 0.910956E-013
 0.910958E-013
 0.910959E-013
 0.910961E-013
 0.910962E-013
 0.910964E-013
 0.910965E-013
 0.910967E-013
 0.910969E-013
 0.910970E-013
 0.910972E-013
 0.910973E-013
 0.910975E-013
 0.910976E-013
 0.910978E-013
 0.910979E-013
 0.910980E-013
 0.910981E-013
 0.910982E-013
 0.910983E-013
 0.910984E-013
 0.910984E-013
 0.910985E-013
 0.910985E-013
 0.910985E-013
 0.910985E-013
 0.910985E-013
 0.910985E-013
 0.910984E-013
 0.910984E-013
 0.910983E-013
 0.910982E-013
 0.910981E-013
 0.910980E-013
 0.910979E-013
 0.910978E-013
 0.910976E-013
 0.910975E-013
 0.910973E-013
 0.910972E-013
 0.910970E-013
 0.910969E-013
 0.910967E-013
 0.910966E-013
 0.910964E-013
 0.910962E-013
 0.910961E-013
 0.910959E-013
 0.910958E-013
 0.910956E-013
 0.910955E-013
 0.910954E-013
 0.910952E-013
 0.910951E-013
 0.910950E-013
 0.910949E-013
 0.910948E-013
 0.910947E-013
 0.910946E-013
 0.910945E-013
 0.910944E-013
 0.910944E-013
 0.910943E-013
 0.910942E-013
 0.910942E-013
 0.910941E-013
 0.910941E-013
 0.910941E-013
 0.910940E-013
 0.910940E-013
 0.910940E-013
 0.910940E-013
 0.910939E-013
 0.910939E-013
 0.910939E-013
 0.910939E-013
 0.910939E-013
 0.910939E-013
 0.910939E-013
 0.910939E-013
 0.910939E-013
 0.910939E-013
 0.910938E-013
 0.910938E-013
 0.910939E-013
 0.910933E-013
 0.911018E-013
 0.910059E-013
 0.917506E-013
 0.918297E-013
 0.909953E-013
 0.911027E-013
 0.910932E-013
 0.910939E-013
 0.910938E-013
 0.910938E-013
 0.910938E-013
 0.910938E-013
 0.910939E-013
 0.910939E-013
 0.910939E-013
 0.910939E-013
 0.910939E-013
 0.910939E-013
 0.910939E-013
 0.910939E-013
 0.910940E-013
 0.910940E-013
 0.910940E-013
 0.910941E-013
 0.910941E-013
 0.910942E-013
 0.910942E-013
 0.910943E-013
 0.910943E-013
 0.910944E-013
 0.910945E-013
 0.910946E-013
 0.910946E-013
 0.910947E-013
 0.910948E-013
 0.910950E-013
 0.910951E-013
 0.910952E-013
 0.910953E-013
 0.910955E-013
 0.910956E-013
 0.910958E-013
 0.910960E-013
 0.910961E-013
 0.910963E-013
 0.910965E-013
 0.910967E-013
 0.910969E-013
 0.910971E-013
 0.910973E-013
 0.910974E-013
 0.910976E-013
 0.910978E-013
 0.910980E-013
 0.910982E-013
 0.910983E-013
 0.910985E-013
 0.910987E-013
 0.910988E-013
 0.910989E-013
 0.910990E-013
 0.910991E-013
 0.910992E-013
 0.910993E-013
 0.910993E-013
 0.910994E-013
 0.910994E-013
 0.910994E-013
 0.910994E-013
 0.910993E-013
 0.910993E-013
 0.910992E-013
 0.910991E-013
 0.910990E-013
 0.910989E-013
 0.910988E-013
 0.910987E-013
 0.910985E-013
 0.910984E-013
 0.910982E-013
 0.910980E-013
 0.910978E-013
 0.910976E-013
 0.910975E-013
 0.910973E-013
 0.910971E-013
 0.910969E-013
 0.910967E-013
 0.910965E-013
 0.910963E-013
 0.910962E-013
 0.910960E-013
 0.910958E-013
 0.910957E-013
 0.910955E-013
 0.910954E-013
 0.910952E-013
 0.910951E-013
 0.910950E-013
 0.910949E-013
 0.910947E-013
 0.910947E-013
 0.910946E-013
 0.910945E-013
 0.910944E-013
 0.910943E-013
 0.910943E-013
 0.910942E-013
 0.910942E-013
 0.910941E-013
 0.910941E-013
 0.910940E-013
 0.910940E-013
 0.910940E-013
 0.910940E-013
 0.910939E-013
 0.910939E-013
 0.910939E-013
 0.910939E-013
 0.910939E-013
 0.910939E-013
 0.910939E-013
 0.910939E-013
 0.910939E-013
 0.910939E-013
 0.910938E-013
 0.910939E-013
 0.910932E-013
 0.911028E-013
 0.909953E-013
 0.918295E-013
 0.919086E-013
 0.909846E-013
 0.911037E-013
 0.910932E-013
 0.910939E-013
 0.910938E-013
 0.910938E-013
 0.910938E-013
 0.910939E-013
 0.910939E-013
 0.910939E-013
 0.910939E-013
 0.910939E-013
 0.910939E-013
 0.910939E-013
 0.910939E-013
 0.910940E-013
 0.910940E-013
 0.910940E-013
 0.910941E-013
 0.910941E-013
 0.910942E-013
 0.910942E-013
 0.910943E-013
 0.910943E-013
 0.910944E-013
 0.910945E-013
 0.910946E-013
 0.910947E-013
 0.910948E-013
 0.910949E-013
 0.910950E-013
 0.910952E-013
 0.910953E-013
 0.910955E-013
 0.910956E-013
 0.910958E-013
 0.910960E-013
 0.910962E-013
 0.910964E-013
 0.910966E-013
 0.910968E-013
 0.910970E-013
 0.910972E-013
 0.910974E-013
 0.910977E-013
 0.910979E-013
 0.910981E-013
 0.910983E-013
 0.910986E-013
 0.910988E-013
 0.910990E-013
 0.910992E-013
 0.910994E-013
 0.910996E-013
 0.910997E-013
 0.910999E-013
 0.911000E-013
 0.911001E-013
 0.911002E-013
 0.911003E-013
 0.911004E-013
 0.911004E-013
 0.911004E-013
 0.911004E-013
 0.911004E-013
 0.911004E-013
 0.911003E-013
 0.911002E-013
 0.911001E-013
 0.911000E-013
 0.910999E-013
 0.910997E-013
 0.910996E-013
 0.910994E-013
 0.910992E-013
 0.910990E-013
 0.910988E-013
 0.910986E-013
 0.910984E-013
 0.910981E-013
 0.910979E-013
 0.910977E-013
 0.910975E-013
 0.910972E-013
 0.910970E-013
 0.910968E-013
 0.910966E-013
 0.910964E-013
 0.910962E-013
 0.910960E-013
 0.910958E-013
 0.910956E-013
 0.910955E-013
 0.910953E-013
 0.910952E-013
 0.910951E-013
 0.910949E-013
 0.910948E-013
 0.910947E-013
 0.910946E-013
 0.910945E-013
 0.910944E-013
 0.910944E-013
 0.910943E-013
 0.910942E-013
 0.910942E-013
 0.910941E-013
 0.910941E-013
 0.910940E-013
 0.910940E-013
 0.910940E-013
 0.910940E-013
 0.910939E-013
 0.910939E-013
 0.910939E-013
 0.910939E-013
 0.910939E-013
 0.910939E-013
 0.910939E-013
 0.910939E-013
 0.910939E-013
 0.910939E-013
 0.910939E-013
 0.910932E-013
 0.911037E-013
 0.909847E-013
 0.919083E-013
 0.919873E-013
 0.909740E-013
 0.911047E-013
 0.910931E-013
 0.910939E-013
 0.910938E-013
 0.910938E-013
 0.910939E-013
 0.910939E-013
 0.910939E-013
 0.910939E-013
 0.910939E-013
 0.910939E-013
 0.910939E-013
 0.910939E-013
 0.910940E-013
 0.910940E-013
 0.910940E-013
 0.910941E-013
 0.910941E-013
 0.910942E-013
 0.910942E-013
 0.910943E-013
 0.910944E-013
 0.910944E-013
 0.910945E-013
 0.910946E-013
 0.910947E-013
 0.910949E-013
 0.910950E-013
 0.910951E-013
 0.910953E-013
 0.910954E-013
 0.910956E-013
 0.910958E-013
 0.910960E-013
 0.910962E-013
 0.910964E-013
 0.910966E-013
 0.910968E-013
 0.910971E-013
 0.910973E-013
 0.910976E-013
 0.910978E-013
 0.910981E-013
 0.910984E-013
 0.910986E-013
 0.910989E-013
 0.910992E-013