# vtk DataFile Version 3.0
Solution data
ASCII
DATASET STRUCTURED_GRID
DIMENSIONS 128 128 1
POINTS 16384  double
      0.000004      0.000004      0.000000
      0.000012      0.000004      0.000000
      0.000020      0.000004      0.000000
      0.000027      0.000004      0.000000
      0.000035      0.000004      0.000000
      0.000043      0.000004      0.000000
      0.000051      0.000004      0.000000
      0.000059      0.000004      0.000000
      0.000066      0.000004      0.000000
      0.000074      0.000004      0.000000
      0.000082      0.000004      0.000000
      0.000090      0.000004      0.000000
      0.000098      0.000004      0.000000
      0.000105      0.000004      0.000000
      0.000113      0.000004      0.000000
      0.000121      0.000004      0.000000
      0.000129      0.000004      0.000000
      0.000137      0.000004      0.000000
      0.000145      0.000004      0.000000
      0.000152      0.000004      0.000000
      0.000160      0.000004      0.000000
      0.000168      0.000004      0.000000
      0.000176      0.000004      0.000000
      0.000184      0.000004      0.000000
      0.000191      0.000004      0.000000
      0.000199      0.000004      0.000000
      0.000207      0.000004      0.000000
      0.000215      0.000004      0.000000
      0.000223      0.000004      0.000000
      0.000230      0.000004      0.000000
      0.000238      0.000004      0.000000
      0.000246      0.000004      0.000000
      0.000254      0.000004      0.000000
      0.000262      0.000004      0.000000
      0.000270      0.000004      0.000000
      0.000277      0.000004      0.000000
      0.000285      0.000004      0.000000
      0.000293      0.000004      0.000000
      0.000301      0.000004      0.000000
      0.000309      0.000004      0.000000
      0.000316      0.000004      0.000000
      0.000324      0.000004      0.000000
      0.000332      0.000004      0.000000
      0.000340      0.000004      0.000000
      0.000348      0.000004      0.000000
      0.000355      0.000004      0.000000
      0.000363      0.000004      0.000000
      0.000371      0.000004      0.000000
      0.000379      0.000004      0.000000
      0.000387      0.000004      0.000000
      0.000395      0.000004      0.000000
      0.000402      0.000004      0.000000
      0.000410      0.000004      0.000000
      0.000418      0.000004      0.000000
      0.000426      0.000004      0.000000
      0.000434      0.000004      0.000000
      0.000441      0.000004      0.000000
      0.000449      0.000004      0.000000
      0.000457      0.000004      0.000000
      0.000465      0.000004      0.000000
      0.000473      0.000004      0.000000
      0.000480      0.000004      0.000000
      0.000488      0.000004      0.000000
      0.000496      0.000004      0.000000
      0.000504      0.000004      0.000000
      0.000512      0.000004      0.000000
      0.000520      0.000004      0.000000
      0.000527      0.000004      0.000000
      0.000535      0.000004      0.000000
      0.000543      0.000004      0.000000
      0.000551      0.000004      0.000000
      0.000559      0.000004      0.000000
      0.000566      0.000004      0.000000
      0.000574      0.000004      0.000000
      0.000582      0.000004      0.000000
      0.000590      0.000004      0.000000
      0.000598      0.000004      0.000000
      0.000605      0.000004      0.000000
      0.000613      0.000004      0.000000
      0.000621      0.000004      0.000000
      0.000629      0.000004      0.000000
      0.000637      0.000004      0.000000
      0.000645      0.000004      0.000000
      0.000652      0.000004      0.000000
      0.000660      0.000004      0.000000
      0.000668      0.000004      0.000000
      0.000676      0.000004      0.000000
      0.000684      0.000004      0.000000
      0.000691      0.000004      0.000000
      0.000699      0.000004      0.000000
      0.000707      0.000004      0.000000
      0.000715      0.000004      0.000000
      0.000723      0.000004      0.000000
      0.000730      0.000004      0.000000
      0.000738      0.000004      0.000000
      0.000746      0.000004      0.000000
      0.000754      0.000004      0.000000
      0.000762      0.000004      0.000000
      0.000770      0.000004      0.000000
      0.000777      0.000004      0.000000
      0.000785      0.000004      0.000000
      0.000793      0.000004      0.000000
      0.000801      0.000004      0.000000
      0.000809      0.000004      0.000000
      0.000816      0.000004      0.000000
      0.000824      0.000004      0.000000
      0.000832      0.000004      0.000000
      0.000840      0.000004      0.000000
      0.000848      0.000004      0.000000
      0.000855      0.000004      0.000000
      0.000863      0.000004      0.000000
      0.000871      0.000004      0.000000
      0.000879      0.000004      0.000000
      0.000887      0.000004      0.000000
      0.000895      0.000004      0.000000
      0.000902      0.000004      0.000000
      0.000910      0.000004      0.000000
      0.000918      0.000004      0.000000
      0.000926      0.000004      0.000000
      0.000934      0.000004      0.000000
      0.000941      0.000004      0.000000
      0.000949      0.000004      0.000000
      0.000957      0.000004      0.000000
      0.000965      0.000004      0.000000
      0.000973      0.000004      0.000000
      0.000980      0.000004      0.000000
      0.000988      0.000004      0.000000
      0.000996      0.000004      0.000000
      0.000004      0.000012      0.000000
      0.000012      0.000012      0.000000
      0.000020      0.000012      0.000000
      0.000027      0.000012      0.000000
      0.000035      0.000012      0.000000
      0.000043      0.000012      0.000000
      0.000051      0.000012      0.000000
      0.000059      0.000012      0.000000
      0.000066      0.000012      0.000000
      0.000074      0.000012      0.000000
      0.000082      0.000012      0.000000
      0.000090      0.000012      0.000000
      0.000098      0.000012      0.000000
      0.000105      0.000012      0.000000
      0.000113      0.000012      0.000000
      0.000121      0.000012      0.000000
      0.000129      0.000012      0.000000
      0.000137      0.000012      0.000000
      0.000145      0.000012      0.000000
      0.000152      0.000012      0.000000
      0.000160      0.000012      0.000000
      0.000168      0.000012      0.000000
      0.000176      0.000012      0.000000
      0.000184      0.000012      0.000000
      0.000191      0.000012      0.000000
      0.000199      0.000012      0.000000
      0.000207      0.000012      0.000000
      0.000215      0.000012      0.000000
      0.000223      0.000012      0.000000
      0.000230      0.000012      0.000000
      0.000238      0.000012      0.000000
      0.000246      0.000012      0.000000
      0.000254      0.000012      0.000000
      0.000262      0.000012      0.000000
      0.000270      0.000012      0.000000
      0.000277      0.000012      0.000000
      0.000285      0.000012      0.000000
      0.000293      0.000012      0.000000
      0.000301      0.000012      0.000000
      0.000309      0.000012      0.000000
      0.000316      0.000012      0.000000
      0.000324      0.000012      0.000000
      0.000332      0.000012      0.000000
      0.000340      0.000012      0.000000
      0.000348      0.000012      0.000000
      0.000355      0.000012      0.000000
      0.000363      0.000012      0.000000
      0.000371      0.000012      0.000000
      0.000379      0.000012      0.000000
      0.000387      0.000012      0.000000
      0.000395      0.000012      0.000000
      0.000402      0.000012      0.000000
      0.000410      0.000012      0.000000
      0.000418      0.000012      0.000000
      0.000426      0.000012      0.000000
      0.000434      0.000012      0.000000
      0.000441      0.000012      0.000000
      0.000449      0.000012      0.000000
      0.000457      0.000012      0.000000
      0.000465      0.000012      0.000000
      0.000473      0.000012      0.000000
      0.000480      0.000012      0.000000
      0.000488      0.000012      0.000000
      0.000496      0.000012      0.000000
      0.000504      0.000012      0.000000
      0.000512      0.000012      0.000000
      0.000520      0.000012      0.000000
      0.000527      0.000012      0.000000
      0.000535      0.000012      0.000000
      0.000543      0.000012      0.000000
      0.000551      0.000012      0.000000
      0.000559      0.000012      0.000000
      0.000566      0.000012      0.000000
      0.000574      0.000012      0.000000
      0.000582      0.000012      0.000000
      0.000590      0.000012      0.000000
      0.000598      0.000012      0.000000
      0.000605      0.000012      0.000000
      0.000613      0.000012      0.000000
      0.000621      0.000012      0.000000
      0.000629      0.000012      0.000000
      0.000637      0.000012      0.000000
      0.000645      0.000012      0.000000
      0.000652      0.000012      0.000000
      0.000660      0.000012      0.000000
      0.000668      0.000012      0.000000
      0.000676      0.000012      0.000000
      0.000684      0.000012      0.000000
      0.000691      0.000012      0.000000
      0.000699      0.000012      0.000000
      0.000707      0.000012      0.000000
      0.000715      0.000012      0.000000
      0.000723      0.000012      0.000000
      0.000730      0.000012      0.000000
      0.000738      0.000012      0.000000
      0.000746      0.000012      0.000000
      0.000754      0.000012      0.000000
      0.000762      0.000012      0.000000
      0.000770      0.000012      0.000000
      0.000777      0.000012      0.000000
      0.000785      0.000012      0.000000
[...]
POINT_DATA 16384
SCALARS rhoe double
LOOKUP_TABLE default
 0.914095E-013
 0.913087E-013
 0.914481E-013
 0.915417E-013
 0.916416E-013
 0.917406E-013
 0.918395E-013
 0.919383E-013
 0.920368E-013
 0.921351E-013
 0.922332E-013
 0.923311E-013
 0.924287E-013
 0.925261E-013
 0.926232E-013
 0.927201E-013
 0.928166E-013
 0.929127E-013
 0.930085E-013
 0.931038E-013
 0.931988E-013
 0.932932E-013
 0.933871E-013
 0.934804E-013
 0.935731E-013
 0.936652E-013
 0.937564E-013
 0.938469E-013
 0.939365E-013
 0.940252E-013
 0.941129E-013
 0.941994E-013
 0.942849E-013
 0.943690E-013
 0.944518E-013
 0.945332E-013
 0.946131E-013
 0.946913E-013
 0.947678E-013
 0.948426E-013
 0.949153E-013
 0.949861E-013
 0.950548E-013
 0.951212E-013
 0.951853E-013
 0.952470E-013
 0.953061E-013
 0.953626E-013
 0.954163E-013
 0.954673E-013
 0.955153E-013
 0.955602E-013
 0.956021E-013
 0.956408E-013
 0.956763E-013
 0.957084E-013
 0.957371E-013
 0.957623E-013
 0.957841E-013
 0.958023E-013
 0.958169E-013
 0.958278E-013
 0.958352E-013
 0.958388E-013
 0.958388E-013
 0.958351E-013
 0.958278E-013
 0.958168E-013
 0.958022E-013
 0.957840E-013
 0.957622E-013
 0.957369E-013
 0.957082E-013
 0.956761E-013
 0.956406E-013
 0.956019E-013
 0.955600E-013
 0.955150E-013
 0.954670E-013
 0.954161E-013
 0.953623E-013
 0.953058E-013
 0.952467E-013
 0.951850E-013
 0.951209E-013
 0.950545E-013
 0.949858E-013
 0.949150E-013
 0.948422E-013
 0.947675E-013
 0.946910E-013
 0.946127E-013
 0.945328E-013
 0.944515E-013
 0.943686E-013
 0.942845E-013
 0.941991E-013
 0.941125E-013
 0.940248E-013
 0.939362E-013
 0.938466E-013
 0.937561E-013
 0.936648E-013
 0.935728E-013
 0.934801E-013
 0.933868E-013
 0.932929E-013
 0.931984E-013
 0.931035E-013
 0.930082E-013
 0.929124E-013
 0.928162E-013
 0.927198E-013
 0.926230E-013
 0.925259E-013
 0.924285E-013
 0.923309E-013
 0.922330E-013
 0.921349E-013
 0.920366E-013
 0.919381E-013
 0.918394E-013
 0.917405E-013
 0.916415E-013
 0.915416E-013
 0.914480E-013
 0.913086E-013
 0.914095E-013
 0.913087E-013
 0.909809E-013
 0.910221E-013
 0.909879E-013
 0.909651E-013
 0.909410E-013
 0.909171E-013
 0.908933E-013
 0.908695E-013
 0.908458E-013
 0.908221E-013
 0.907986E-013
 0.907750E-013
 0.907516E-013
 0.907283E-013
 0.907050E-013
 0.906818E-013
 0.906587E-013
 0.906357E-013
 0.906129E-013
 0.905901E-013
 0.905675E-013
 0.905450E-013
 0.905227E-013
 0.905006E-013
 0.904786E-013
 0.904568E-013
 0.904352E-013
 0.904138E-013
 0.903927E-013
 0.903718E-013
 0.903512E-013
 0.903309E-013
 0.903109E-013
 0.902912E-013
 0.902719E-013
 0.902529E-013
 0.902344E-013
 0.902162E-013
 0.901985E-013
 0.901813E-013
 0.901645E-013
 0.901483E-013
 0.901326E-013
 0.901174E-013
 0.901029E-013
 0.900889E-013
 0.900756E-013
 0.900629E-013
 0.900509E-013
 0.900396E-013
 0.900290E-013
 0.900191E-013
 0.900100E-013
 0.900017E-013
 0.899941E-013
 0.899873E-013
 0.899814E-013
 0.899763E-013
 0.899720E-013
 0.899686E-013
 0.899660E-013
 0.899643E-013
 0.899634E-013
 0.899634E-013
 0.899643E-013
 0.899660E-013
 0.899686E-013
 0.899720E-013
 0.899763E-013
 0.899814E-013
 0.899874E-013
 0.899941E-013
 0.900017E-013
 0.900100E-013
 0.900192E-013
 0.900290E-013
 0.900396E-013
 0.900509E-013
 0.900630E-013
 0.900756E-013
 0.900890E-013
 0.901029E-013
 0.901175E-013
 0.901327E-013
 0.901484E-013
 0.901646E-013
 0.901814E-013
 0.901986E-013
 0.902163E-013
 0.902344E-013
 0.902530E-013
 0.902720E-013
 0.902913E-013
 0.903110E-013
 0.903310E-013
 0.903513E-013
 0.903719E-013
 0.903928E-013
 0.904139E-013
 0.904353E-013
 0.904569E-013
 0.904787E-013
 0.905006E-013
 0.905228E-013
 0.905451E-013
 0.905676E-013
 0.905902E-013
 0.906130E-013
 0.906358E-013
 0.906588E-013
 0.906819E-013
 0.907050E-013
 0.907283E-013
 0.907517E-013
 0.907751E-013
 0.907986E-013
 0.908222E-013
 0.908458E-013
 0.908696E-013
 0.908933E-013
 0.909172E-013
 0.909411E-013
 0.909651E-013
 0.909880E-013
 0.910221E-013
 0.909809E-013
 0.913086E-013
 0.914481E-013
 0.910221E-013
 0.911197E-013
 0.911092E-013
 0.911148E-013
 0.911186E-013
 0.911225E-013
 0.911265E-013
 0.911304E-013
 0.911343E-013
 0.911381E-013
 0.911420E-013
 0.911459E-013
 0.911497E-013
 0.911535E-013
 0.911573E-013
 0.911611E-013
 0.911649E-013
 0.911687E-013
 0.911724E-013
 0.911762E-013
 0.911799E-013
 0.911836E-013
 0.911872E-013
 0.911908E-013
 0.911944E-013
 0.911980E-013
 0.912016E-013
 0.912051E-013
 0.912085E-013
 0.912119E-013
 0.912153E-013
 0.912187E-013
 0.912219E-013
 0.912252E-013
 0.912283E-013
 0.912315E-013
 0.912345E-013
 0.912375E-013
 0.912404E-013
 0.912432E-013
 0.912460E-013
 0.912487E-013
 0.912513E-013
 0.912538E-013
 0.912562E-013
 0.912585E-013
 0.912607E-013
 0.912628E-013
 0.912647E-013
 0.912666E-013
 0.912684E-013
 0.912700E-013
 0.912715E-013
 0.912729E-013
 0.912741E-013
 0.912752E-013
 0.912762E-013
 0.912771E-013
 0.912778E-013
 0.912784E-013
 0.912788E-013
 0.912791E-013
 0.912792E-013
 0.912792E-013
 0.912791E-013
 0.912788E-013
 0.912784E-013
 0.912778E-013
 0.912771E-013
 0.912762E-013
 0.912752E-013
 0.912741E-013
 0.912729E-013
 0.912715E-013
 0.912700E-013
 0.912684E-013
 0.912666E-013
 0.912647E-013
 0.912627E-013
 0.912607E-013
 0.912585E-013
 0.912562E-013
 0.912538E-013
 0.912513E-013
 0.912487E-013
 0.912460E-013
 0.912432E-013
 0.912404E-013
 0.912375E-013
 0.912345E-013
 0.912315E-013
 0.912283E-013
 0.912252E-013
 0.912219E-013
 0.912187E-013
 0.912153E-013
 0.912119E-013
 0.912085E-013
 0.912051E-013
 0.912016E-013
 0.911980E-013
 0.911944E-013
 0.911908E-013
 0.911872E-013
 0.911836E-013
 0.911799E-013
 0.911762E-013
 0.911724E-013
 0.911687E-013
 0.911649E-013
 0.911611E-013
 0.911573E-013
 0.911535E-013
 0.911497E-013
 0.911459E-013
 0.911420E-013
 0.911381E-013
 0.911343E-013
 0.911304E-013
 0.911265E-013
 0.911225E-013
 0.911186E-013
 0.911148E-013
 0.911092E-013
 0.911197E-013
 0.910221E-013
 0.914480E-013
 0.915417E-013
 0.909879E-013
 0.911092E-013
 0.910897E-013
 0.910915E-013
 0.910908E-013
 0.910903E-013
 0.910898E-013
 0.910893E-013
 0.910888E-013
 0.910883E-013
 0.910879E-013
 0.910874E-013
 0.910869E-013
 0.910864E-013
 0.910860E-013
 0.910855E-013
 0.910850E-013
 0.910846E-013
 0.910841E-013
 0.910837E-013
 0.910832E-013
 0.910828E-013
 0.910823E-013
 0.910819E-013
 0.910814E-013
 0.910810E-013
 0.910806E-013
 0.910802E-013
 0.910798E-013
 0.910794E-013
 0.910790E-013
 0.910786E-013
 0.910782E-013
 0.910778E-013
 0.910774E-013
 0.910771E-013
 0.910767E-013
 0.910764E-013
 0.910761E-013
 0.910758E-013
 0.910754E-013
 0.910752E-013
 0.910749E-013
 0.910746E-013
 0.910743E-013
 0.910741E-013
 0.910739E-013
 0.910736E-013
 0.910734E-013
 0.910732E-013
 0.910730E-013
 0.910729E-013
 0.910727E-013
 0.910726E-013
 0.910724E-013
 0.910723E-013
 0.910722E-013
 0.910721E-013
 0.910721E-013
 0.910720E-013
 0.910720E-013
 0.910720E-013
 0.910719E-013
 0.910719E-013
 0.910720E-013
 0.910720E-013
 0.910720E-013
 0.910721E-013
 0.910722E-013
 0.910722E-013
 0.910723E-013
 0.910725E-013
 0.910726E-013
 0.910727E-013
 0.910729E-013
 0.910730E-013
 0.910732E-013
 0.910734E-013
 0.910736E-013
 0.910739E-013
 0.910741E-013
 0.910743E-013
 0.910746E-013
 0.910749E-013
 0.910752E-013
 0.910755E-013
 0.910758E-013
 0.910761E-013
 0.910764E-013
 0.910767E-013
 0.910771E-013
 0.910774E-013
 0.910778E-013
 0.910782E-013
 0.910786E-013
 0.910790E-013
 0.910794E-013
 0.910798E-013
 0.910802E-013
 0.910806E-013
 0.910810E-013
 0.910815E-013
 0.910819E-013
 0.910823E-013
 0.910828E-013
 0.910832E-013
 0.910837E-013
 0.910841E-013
 0.910846E-013
 0.910850E-013
 0.910855E-013
 0.910860E-013
 0.910864E-013
 0.910869E-013
 0.910874E-013
 0.910879E-013
 0.910884E-013
 0.910888E-013
 0.910893E-013
 0.910898E-013
 0.910903E-013
 0.910908E-013
 0.910915E-013
 0.910897E-013
 0.911092E-013
 0.909880E-013
 0.915416E-013
 0.916416E-013
 0.909651E-013
 0.911148E-013
 0.910915E-013
 0.910943E-013
 0.910941E-013
 0.910942E-013
 0.910942E-013
 0.910943E-013
 0.910943E-013
 0.910944E-013
 0.910944E-013
 0.910945E-013
 0.910945E-013
 0.910946E-013
 0.910946E-013
 0.910947E-013
 0.910947E-013
 0.910948E-013
 0.910948E-013
 0.910949E-013
 0.910949E-013
 0.910950E-013
 0.910950E-013
 0.910951E-013
 0.910951E-013
 0.910952E-013
 0.910952E-013
 0.910953E-013
 0.910954E-013
 0.910954E-013
 0.910955E-013
 0.910955E-013
 0.910956E-013
 0.910957E-013
 0.910957E-013
 0.910958E-013
 0.910959E-013
 0.910959E-013
 0.910960E-013
 0.910961E-013
 0.910962E-013
 0.910962E-013
 0.910963E-013
 0.910964E-013
 0.910964E-013
 0.910965E-013
 0.910966E-013
 0.910966E-013
 0.910967E-013
 0.910968E-013
 0.910968E-013
 0.910969E-013
 0.910969E-013
 0.910970E-013
 0.910970E-013
 0.910970E-013
 0.910971E-013
 0.910971E-013
 0.910971E-013
 0.910972E-013
 0.910972E-013
 0.910972E-013
 0.910972E-013
 0.910972E-013
 0.910972E-013
 0.910972E-013
 0.910972E-013
 0.910971E-013
 0.910971E-013
 0.910971E-013
 0.910971E-013
 0.910970E-013
 0.910970E-013
 0.910969E-013
 0.910969E-013
 0.910968E-013
 0.910968E-013
 0.910967E-013
 0.910966E-013
 0.910966E-013
 0.910965E-013
 0.910964E-013
 0.910964E-013
 0.910963E-013
 0.910962E-013
 0.910962E-013
 0.910961E-013
 0.910960E-013
 0.910960E-013
 0.910959E-013
 0.910958E-013
 0.910958E-013
 0.910957E-013
 0.910956E-013
 0.910956E-013
 0.910955E-013
 0.910954E-013
 0.910954E-013
 0.910953E-013
 0.910953E-013
 0.910952E-013
 0.910951E-013
 0.910951E-013
 0.910950E-013
 0.910950E-013
 0.910949E-013
 0.910949E-013
 0.910948E-013
 0.910948E-013
 0.910947E-013
 0.910947E-013
 0.910946E-013
 0.910946E-013
 0.910945E-013
 0.910945E-013
 0.910944E-013
 0.910944E-013
 0.910943E-013
 0.910943E-013
 0.910942E-013
 0.910942E-013
 0.910941E-013
 0.910943E-013
 0.910915E-013
 0.911148E-013
 0.909652E-013
 0.916415E-013
 0.917406E-013
 0.909410E-013
 0.911186E-013
 0.910908E-013
 0.910941E-013
 0.910938E-013
 0.910938E-013
 0.910938E-013
 0.910938E-013
 0.910938E-013
 0.910938E-013
 0.910938E-013
 0.910938E-013
 0.910938E-013
 0.910938E-013
 0.910938E-013
 0.910938E-013
 0.910938E-013
 0.910938E-013
 0.910938E-013
 0.910938E-013
 0.910938E-013
 0.910938E-013
 0.910938E-013
 0.910938E-013
 0.910938E-013
 0.910938E-013
 0.910938E-013
 0.910938E-013
 0.910939E-013
 0.910939E-013
 0.910939E-013
 0.910939E-013
 0.910940E-013
 0.910940E-013
 0.910940E-013
 0.910940E-013
 0.910941E-013
 0.910941E-013
 0.910942E-013
 0.910942E-013
 0.910942E-013
 0.910943E-013
 0.910943E-013
 0.910944E-013
 0.910944E-013
 0.910944E-013
 0.910945E-013
 0.910945E-013
 0.910946E-013
 0.910946E-013
 0.910947E-013
 0.910947E-013
 0.910947E-013
 0.910948E-013
 0.910948E-013
 0.910948E-013
 0.910949E-013
 0.910949E-013
 0.910949E-013
 0.910949E-013
 0.910949E-013
 0.910950E-013
 0.910950E-013
 0.910950E-013
 0.910950E-013
 0.910949E-013
 0.910949E-013
 0.910949E-013
 0.910949E-013
 0.910949E-013
 0.910948E-013
 0.910948E-013
 0.910948E-013
 0.910947E-013
 0.910947E-013
 0.910947E-013
 0.910946E-013
 0.910946E-013
 0.910945E-013
 0.910945E-013
 0.910945E-013
 0.910944E-013
 0.910944E-013
 0.910943E-013
 0.910943E-013
 0.910942E-013
 0.910942E-013
 0.910942E-013
 0.910941E-013
 0.910941E-013
 0.910941E-013
 0.910940E-013
 0.910940E-013
 0.910940E-013
 0.910939E-013
 0.910939E-013
 0.910939E-013
 0.910939E-013
 0.910939E-013
 0.910938E-013
 0.910938E-013
 0.910938E-013
 0.910938E-013
 0.910938E-013
 0.910938E-013
 0.910938E-013
 0.910938E-013
 0.910938E-013
 0.910938E-013
 0.910938E-013
 0.910938E-013
 0.910938E-013
 0.910938E-013
 0.910938E-013
 0.910938E-013
 0.910938E-013
 0.910938E-013
 0.910938E-013
 0.910938E-013
 0.910938E-013
 0.910938E-013
 0.910938E-013
 0.910941E-013
 0.910908E-013
 0.911186E-013
 0.909411E-013
 0.917405E-013
 0.918395E-013
 0.909171E-013
 0.911225E-013
 0.910903E-013
 0.910942E-013
 0.910938E-013
 0.910938E-013
 0.910938E-013
 0.910938E-013
 0.910938E-013
 0.910938E-013
 0.910938E-013
 0.910938E-013
 0.910938E-013
 0.910938E-013
 0.910938E-013
 0.910938E-013
 0.910938E-013
 0.910939E-013
 0.910939E-013
 0.910939E-013
 0.910939E-013
 0.910939E-013
 0.910939E-013
 0.910939E-013
 0.910939E-013
 0.910940E-013
 0.910940E-013
 0.910940E-013
 0.910940E-013
 0.910941E-013
 0.910941E-013
 0.910941E-013
 0.910942E-013
 0.910942E-013
 0.910942E-013
 0.910943E-013
 0.910943E-013
 0.910944E-013
 0.910944E-013
 0.910945E-013
 0.910945E-013
 0.910946E-013
 0.910946E-013
 0.910947E-013
 0.910947E-013
 0.910948E-013
 0.910948E-013
 0.910949E-013
 0.910950E-013
 0.910950E-013
 0.910951E-013
 0.910951E-013
 0.910952E-013
 0.910952E-013
 0.910953E-013
 0.910953E-013
 0.910953E-013
 0.910954E-013
 0.910954E-013
 0.910954E-013
 0.910954E-013
 0.910954E-013
 0.910954E-013
 0.910954E-013
 0.910954E-013
 0.910954E-013
 0.910954E-013
 0.910954E-013
 0.910954E-013
 0.910953E-013
 0.910953E-013
 0.910953E-013
 0.910952E-013
 0.910952E-013
 0.910951E-013
 0.910951E-013
 0.910950E-013
 0.910950E-013
 0.910949E-013
 0.910949E-013
 0.910948E-013
 0.910947E-013
 0.910947E-013
 0.910946E-013
 0.910946E-013
 0.910945E-013
 0.910945E-013
 0.910944E-013
 0.910944E-013
 0.910943E-013
 0.910943E-013
 0.910942E-013
 0.910942E-013
 0.910942E-013
 0.910941E-013
 0.910941E-013
 0.910941E-013
 0.910940E-013
 0.910940E-013
 0.910940E-013
 0.910940E-013
 0.910939E-013
 0.910939E-013
 0.910939E-013
 0.910939E-013
 0.910939E-013
 0.910939E-013
 0.910939E-013
 0.910939E-013
 0.910939E-013
 0.910938E-013
 0.910938E-013
 0.910938E-013
 0.910938E-013
 0.910938E-013
 0.910938E-013
 0.910938E-013
 0.910938E-013
 0.910938E-013
 0.910938E-013
 0.910938E-013
 0.910938E-013
 0.910942E-013
 0.910903E-013
 0.911226E-013
 0.909172E-013
 0.918394E-013
 0.919383E-013
 0.908933E-013
 0.911265E-013
 0.910898E-013
 0.910942E-013
 0.910938E-013
 0.910938E-013
 0.910938E-013
 0.910938E-013
 0.910938E-013
 0.910938E-013
 0.910938E-013
 0.910938E-013
 0.910938E-013
 0.910938E-013
 0.910938E-013
 0.910938E-013
 0.910938E-013
 0.910939E-013
 0.910939E-013
 0.910939E-013
 0.910939E-013
 0.910939E-013
 0.910939E-013
 0.910939E-013
 0.910940E-013
 0.910940E-013
 0.910940E-013
 0.910940E-013
 0.910941E-013
 0.910941E-013
 0.910941E-013
 0.910942E-013
 0.910942E-013
 0.910943E-013
 0.910943E-013
 0.910944E-013
 0.910944E-013
 0.910945E-013
 0.910945E-013
 0.910946E-013
 0.910946E-013
 0.910947E-013
 0.910948E-013
 0.910948E-013
 0.910949E-013
 0.910950E-013
 0.910950E-013
 0.910951E-013
 0.910952E-013
 0.910952E-013
 0.910953E-013
 0.910954E-013
 0.910954E-013
 0.910955E-013
 0.910955E-013
 0.910956E-013
 0.910956E-013
 0.910956E-013
 0.910957E-013
 0.910957E-013
 0.910957E-013
 0.910957E-013
 0.910957E-013
 0.910957E-013
 0.910957E-013
 0.910957E-013
 0.910957E-013
 0.910957E-013
 0.910956E-013
 0.910956E-013
 0.910956E-013
 0.910955E-013
 0.910955E-013
 0.910954E-013
 0.910954E-013
 0.910953E-013
 0.910952E-013
 0.910952E-013
 0.910951E-013
 0.910950E-013
 0.910950E-013
 0.910949E-013
 0.910948E-013
 0.910948E-013
 0.910947E-013
 0.910947E-013
 0.910946E-013
 0.910945E-013
 0.910945E-013
 0.910944E-013
 0.910944E-013
 0.910943E-013
 0.910943E-013
 0.910942E-013
 0.910942E-013
 0.910941E-013
 0.910941E-013
 0.910941E-013
 0.910940E-013
 0.910940E-013
 0.910940E-013
 0.910940E-013
 0.910939E-013
 0.910939E-013
 0.910939E-013
 0.910939E-013
 0.910939E-013
 0.910939E-013
 0.910939E-013
 0.910939E-013
 0.910939E-013
 0.910938E-013
 0.910938E-013
 0.910938E-013
 0.910938E-013
 0.910938E-013
 0.910938E-013
 0.910938E-013
 0.910938E-013
 0.910938E-013
 0.910938E-013
 0.910938E-013
 0.910942E-013
 0.910898E-013
 0.911265E-013
 0.908934E-013
 0.919381E-013
 0.920368E-013
 0.908695E-013
 0.911304E-013
 0.910893E-013
 0.910943E-013
 0.910938E-013
 0.910938E-013
 0.910938E-013
 0.910938E-013
 0.910938E-013
 0.910938E-013
 0.910938E-013
 0.910938E-013
 0.910938E-013
 0.910938E-013
 0.910938E-013
 0.910938E-013
 0.910939E-013
 0.910939E-013
 0.910939E-013
 0.910939E-013
 0.910939E-013
 0.910939E-013
 0.910939E-013
 0.910940E-013
 0.910940E-013
 0.910940E-013
 0.910940E-013
 0.910941E-013
 0.910941E-013
 0.910942E-013
 0.910942E-013
 0.910942E-013
 0.910943E-013
 0.910943E-013
 0.910944E-013
 0.910945E-013
 0.910945E-013
 0.910946E-013
 0.910947E-013
 0.910947E-013
 0.910948E-013
 0.910949E-013
 0.910950E-013
 0.910950E-013
 0.910951E-013
 0.910952E-013
 0.910953E-013
 0.910954E-013
 0.910954E-013
 0.910955E-013
 0.910956E-013
 0.910957E-013
 0.910957E-013
 0.910958E-013
 0.910958E-013
 0.910959E-013
 0.910959E-013
 0.910960E-013
 0.910960E-013
 0.910960E-013
 0.910961E-013
 0.910961E-013
 0.910961E-013
 0.910961E-013
 0.910961E-013
 0.910961E-013
 0.910960E-013
 0.910960E-013
 0.910960E-013
 0.910959E-013
 0.910959E-013
 0.910958E-013
 0.910958E-013
 0.910957E-013
 0.910957E-013
 0.910956E-013
 0.910955E-013
 0.910954E-013
 0.910954E-013
 0.910953E-013
 0.910952E-013
 0.910951E-013
 0.910950E-013
 0.910950E-013
 0.910949E-013
 0.910948E-013
 0.910947E-013
 0.910947E-013
 0.910946E-013
 0.910945E-013
 0.910945E-013
 0.910944E-013
 0.910944E-013
 0.910943E-013
 0.910943E-013
 0.910942E-013
 0.910942E-013
 0.910941E-013
 0.910941E-013
 0.910941E-013
 0.910940E-013
 0.910940E-013
 0.910940E-013
 0.910940E-013
 0.910939E-013
 0.910939E-013
 0.910939E-013
 0.910939E-013
 0.910939E-013
 0.910939E-013
 0.910939E-013
 0.910939E-013
 0.910938E-013
 0.910938E-013
 0.910938E-013
 0.910938E-013
 0.910938E-013
 0.910938E-013
 0.910938E-013
 0.910938E-013
 0.910938E-013
 0.910938E-013
 0.910943E-013
 0.910893E-013
 0.911304E-013
 0.908696E-013
 0.920366E-013
 0.921351E-013
 0.908458E-013
 0.911343E-013
 0.910888E-013
 0.910943E-013
 0.910938E-013
 0.910938E-013
 0.910938E-013
 0.910938E-013
 0.910938E-013
 0.910938E-013
 0.910938E-013
 0.910938E-013
 0.910938E-013
 0.910938E-013
 0.910938E-013
 0.910939E-013
 0.910939E-013
 0.910939E-013
 0.910939E-013
 0.910939E-013
 0.910939E-013
 0.910939E-013
 0.910940E-013
 0.910940E-013
 0.910940E-013
 0.910941E-013
 0.910941E-013
 0.910941E-013
 0.910942E-013
 0.910942E-013
 0.910943E-013
 0.910943E-013
 0.910944E-013
 0.910945E-013
 0.910945E-013
 0.910946E-013
 0.910947E-013
 0.910947E-013
 0.910948E-013
 0.910949E-013
 0.910950E-013
 0.910951E-013
 0.910952E-013
 0.910953E-013
 0.910954E-013
 0.910955E-013
 0.910956E-013
 0.910956E-013
 0.910957E-013
 0.910958E-013
 0.910959E-013
 0.910960E-013
 0.910961E-013
 0.910962E-013
 0.910962E-013
 0.910963E-013
 0.910963E-013
 0.910964E-013
 0.910964E-013
 0.910965E-013
 0.910965E-013
 0.910965E-013
 0.910965E-013
 0.910965E-013
 0.910965E-013
 0.910965E-013
 0.910965E-013
 0.910964E-013
 0.910964E-013
 0.910963E-013
 0.910963E-013
 0.910962E-013
 0.910962E-013
 0.910961E-013
 0.910960E-013
 0.910959E-013
 0.910958E-013
 0.910957E-013
 0.910957E-013
 0.910956E-013
 0.910955E-013
 0.910954E-013
 0.910953E-013
 0.910952E-013
 0.910951E-013
 0.910950E-013
 0.910949E-013
 0.910948E-013
 0.910948E-013
 0.910947E-013
 0.910946E-013
 0.910945E-013
 0.910945E-013
 0.910944E-013
 0.910943E-013
 0.910943E-013
 0.910942E-013
 0.910942E-013
 0.910941E-013
 0.910941E-013
 0.910941E-013
 0.910940E-013
 0.910940E-013
 0.910940E-013
 0.910940E-013
 0.910939E-013
 0.910939E-013
 0.910939E-013
 0.910939E-013
 0.910939E-013
 0.910939E-013
 0.910939E-013
 0.910939E-013
 0.910938E-013
 0.910938E-013
 0.910938E-013
 0.910938E-013
 0.910938E-013
 0.910938E-013
 0.910938E-013
 0.910938E-013
 0.910938E-013
 0.910943E-013
 0.910888E-013
 0.911343E-013
 0.908459E-013
 0.921349E-013
 0.922332E-013
 0.908221E-013
 0.911381E-013
 0.910883E-013
 0.910944E-013
 0.910938E-013
 0.910938E-013
 0.910938E-013
 0.910938E-013
 0.910938E-013
 0.910938E-013
 0.910938E-013
 0.910938E-013
 0.910938E-013
 0.910938E-013
 0.910939E-013
 0.910939E-013
 0.910939E-013
 0.910939E-013
 0.910939E-013
 0.910939E-013
 0.910939E-013
 0.910940E-013
 0.910940E-013
 0.910940E-013
 0.910941E-013
 0.910941E-013
 0.910941E-013
 0.910942E-013
 0.910942E-013
 0.910943E-013
 0.910944E-013
 0.910944E-013
 0.910945E-013
 0.910946E-013
 0.910947E-013
 0.910947E-013
 0.910948E-013
 0.910949E-013
 0.910950E-013
 0.910951E-013
 0.910952E-013
 0.910953E-013
 0.910954E-013
 0.910955E-013
 0.910957E-013
 0.910958E-013
 0.910959E-013
 0.910960E-013