# vtk DataFile Version 3.0
Solution data
ASCII
DATASET STRUCTURED_GRID
DIMENSIONS 128 128 1
POINTS 16384  double
      0.000004      0.000004      0.000000
      0.000012      0.000004      0.000000
      0.000020      0.000004      0.000000
      0.000027      0.000004      0.000000
      0.000035      0.000004      0.000000
      0.000043      0.000004      0.000000
      0.000051      0.000004      0.000000
      0.000059      0.000004      0.000000
      0.000066      0.000004      0.000000
      0.000074      0.000004      0.000000
      0.000082      0.000004      0.000000
      0.000090      0.000004      0.000000
      0.000098      0.000004      0.000000
      0.000105      0.000004      0.000000
      0.000113      0.000004      0.000000
      0.000121      0.000004      0.000000
      0.000129      0.000004      0.000000
      0.000137      0.000004      0.000000
      0.000145      0.000004      0.000000
      0.000152      0.000004      0.000000
      0.000160      0.000004      0.000000
      0.000168      0.000004      0.000000
      0.000176      0.000004      0.000000
      0.000184      0.000004      0.000000
      0.000191      0.000004      0.000000
      0.000199      0.000004      0.000000
      0.000207      0.000004      0.000000
      0.000215      0.000004      0.000000
      0.000223      0.000004      0.000000
      0.000230      0.000004      0.000000
      0.000238      0.000004      0.000000
      0.000246      0.000004      0.000000
      0.000254      0.000004      0.000000
      0.000262      0.000004      0.000000
      0.000270      0.000004      0.000000
      0.000277      0.000004      0.000000
      0.000285      0.000004      0.000000
      0.000293      0.000004      0.000000
      0.000301      0.000004      0.000000
      0.000309      0.000004      0.000000
      0.000316      0.000004      0.000000
      0.000324      0.000004      0.000000
      0.000332      0.000004      0.000000
      0.000340      0.000004      0.000000
      0.000348      0.000004      0.000000
      0.000355      0.000004      0.000000
      0.000363      0.000004      0.000000
      0.000371      0.000004      0.000000
      0.000379      0.000004      0.000000
      0.000387      0.000004      0.000000
      0.000395      0.000004      0.000000
      0.000402      0.000004      0.000000
      0.000410      0.000004      0.000000
      0.000418      0.000004      0.000000
      0.000426      0.000004      0.000000
      0.000434      0.000004      0.000000
      0.000441      0.000004      0.000000
      0.000449      0.000004      0.000000
      0.000457      0.000004      0.000000
      0.000465      0.000004      0.000000
      0.000473      0.000004      0.000000
      0.000480      0.000004      0.000000
      0.000488      0.000004      0.000000
      0.000496      0.000004      0.000000
      0.000504      0.000004      0.000000
      0.000512      0.000004      0.000000
      0.000520      0.000004      0.000000
      0.000527      0.000004      0.000000
      0.000535      0.000004      0.000000
      0.000543      0.000004      0.000000
      0.000551      0.000004      0.000000
      0.000559      0.000004      0.000000
      0.000566      0.000004      0.000000
      0.000574      0.000004      0.000000
      0.000582      0.000004      0.000000
      0.000590      0.000004      0.000000
      0.000598      0.000004      0.000000
      0.000605      0.000004      0.000000
      0.000613      0.000004      0.000000
      0.000621      0.000004      0.000000
      0.000629      0.000004      0.000000
      0.000637      0.000004      0.000000
      0.000645      0.000004      0.000000
      0.000652      0.000004      0.000000
      0.000660      0.000004      0.000000
      0.000668      0.000004      0.000000
      0.000676      0.000004      0.000000
      0.000684      0.000004      0.000000
      0.000691      0.000004      0.000000
      0.000699      0.000004      0.000000
      0.000707      0.000004      0.000000
      0.000715      0.000004      0.000000
      0.000723      0.000004      0.000000
      0.000730      0.000004      0.000000
      0.000738      0.000004      0.000000
      0.000746      0.000004      0.000000
      0.000754      0.000004      0.000000
      0.000762      0.000004      0.000000
      0.000770      0.000004      0.000000
      0.000777      0.000004      0.000000
      0.000785      0.000004      0.000000
      0.000793      0.000004      0.000000
      0.000801      0.000004      0.000000
      0.000809      0.000004      0.000000
      0.000816      0.000004      0.000000
      0.000824      0.000004      0.000000
      0.000832      0.000004      0.000000
      0.000840      0.000004      0.000000
      0.000848      0.000004      0.000000
      0.000855      0.000004      0.000000
      0.000863      0.000004      0.000000
      0.000871      0.000004      0.000000
      0.000879      0.000004      0.000000
      0.000887      0.000004      0.000000
      0.000895      0.000004      0.000000
      0.000902      0.000004      0.000000
      0.000910      0.000004      0.000000
      0.000918      0.000004      0.000000
      0.000926      0.000004      0.000000
      0.000934      0.000004      0.000000
      0.000941      0.000004      0.000000
      0.000949      0.000004      0.000000
      0.000957      0.000004      0.000000
      0.000965      0.000004      0.000000
      0.000973      0.000004      0.000000
      0.000980      0.000004      0.000000
      0.000988      0.000004      0.000000
      0.000996      0.000004      0.000000
      0.000004      0.000012      0.000000
      0.000012      0.000012      0.000000
      0.000020      0.000012      0.000000
      0.000027      0.000012      0.000000
      0.000035      0.000012      0.000000
      0.000043      0.000012      0.000000
      0.000051      0.000012      0.000000
      0.000059      0.000012      0.000000
      0.000066      0.000012      0.000000
      0.000074      0.000012      0.000000
      0.000082      0.000012      0.000000
      0.000090      0.000012      0.000000
      0.000098      0.000012      0.000000
      0.000105      0.000012      0.000000
      0.000113      0.000012      0.000000
      0.000121      0.000012      0.000000
      0.000129      0.000012      0.000000
      0.000137      0.000012      0.000000
      0.000145      0.000012      0.000000
      0.000152      0.000012      0.000000
      0.000160      0.000012      0.000000
      0.000168      0.000012      0.000000
      0.000176      0.000012      0.000000
      0.000184      0.000012      0.000000
      0.000191      0.000012      0.000000
      0.000199      0.000012      0.000000
      0.000207      0.000012      0.000000
      0.000215      0.000012      0.000000
      0.000223      0.000012      0.000000
      0.000230      0.000012      0.000000
      0.000238      0.000012      0.000000
      0.000246      0.000012      0.000000
      0.000254      0.000012      0.000000
      0.000262      0.000012      0.000000
      0.000270      0.000012      0.000000
      0.000277      0.000012      0.000000
      0.000285      0.000012      0.000000
      0.000293      0.000012      0.000000
      0.000301      0.000012      0.000000
      0.000309      0.000012      0.000000
      0.000316      0.000012      0.000000
      0.000324      0.000012      0.000000
      0.000332      0.000012      0.000000
      0.000340      0.000012      0.000000
      0.000348      0.000012      0.000000
      0.000355      0.000012      0.000000
      0.000363      0.000012      0.000000
      0.000371      0.000012      0.000000
      0.000379      0.000012      0.000000
      0.000387      0.000012      0.000000
      0.000395      0.000012      0.000000
      0.000402      0.000012      0.000000
      0.000410      0.000012      0.000000
      0.000418      0.000012      0.000000
      0.000426      0.000012      0.000000
      0.000434      0.000012      0.000000
      0.000441      0.000012      0.000000
      0.000449      0.000012      0.000000
      0.000457      0.000012      0.000000
      0.000465      0.000012      0.000000
      0.000473      0.000012      0.000000
      0.000480      0.000012      0.000000
      0.000488      0.000012      0.000000
      0.000496      0.000012      0.000000
      0.000504      0.000012      0.000000
      0.000512      0.000012      0.000000
      0.000520      0.000012      0.000000
      0.000527      0.000012      0.000000
      0.000535      0.000012      0.000000
      0.000543      0.000012      0.000000
      0.000551      0.000012      0.000000
      0.000559      0.000012      0.000000
      0.000566      0.000012      0.000000
      0.000574      0.000012      0.000000
      0.000582      0.000012      0.000000
      0.000590      0.000012      0.000000
      0.000598      0.000012      0.000000
      0.000605      0.000012      0.000000
      0.000613      0.000012      0.000000
      0.000621      0.000012      0.000000
      0.000629      0.000012      0.000000
      0.000637      0.000012      0.000000
      0.000645      0.000012      0.000000
      0.000652      0.000012      0.000000
      0.000660      0.000012      0.000000
      0.000668      0.000012      0.000000
      0.000676      0.000012      0.000000
      0.000684      0.000012      0.000000
      0.000691      0.000012      0.000000
      0.000699      0.000012      0.000000
      0.000707      0.000012      0.000000
      0.000715      0.000012      0.000000
      0.000723      0.000012      0.000000
      0.000730      0.000012      0.000000
      0.000738      0.000012      0.000000
      0.000746      0.000012      0.000000
      0.000754      0.000012      0.000000
      0.000762      0.000012      0.000000
      0.000770      0.000012      0.000000
      0.000777      0.000012      0.000000
      0.000785      0.000012      0.000000
[...]
POINT_DATA 16384
SCALARS rhoe double
LOOKUP_TABLE default
 0.914183E-013
 0.913108E-013
 0.914540E-013
 0.915478E-013
 0.916488E-013
 0.917487E-013
 0.918485E-013
 0.919481E-013
 0.920474E-013
 0.921466E-013
 0.922456E-013
 0.923443E-013
 0.924428E-013
 0.925410E-013
 0.926389E-013
 0.927366E-013
 0.928339E-013
 0.929308E-013
 0.930274E-013
 0.931236E-013
 0.932193E-013
 0.933145E-013
 0.934091E-013
 0.935032E-013
 0.935966E-013
 0.936894E-013
 0.937814E-013
 0.938726E-013
 0.939629E-013
 0.940522E-013
 0.941406E-013
 0.942278E-013
 0.943138E-013
 0.943986E-013
 0.944821E-013
 0.945640E-013
 0.946445E-013
 0.947233E-013
 0.948004E-013
 0.948756E-013
 0.949490E-013
 0.950202E-013
 0.950894E-013
 0.951563E-013
 0.952208E-013
 0.952829E-013
 0.953424E-013
 0.953993E-013
 0.954534E-013
 0.955047E-013
 0.955530E-013
 0.955983E-013
 0.956405E-013
 0.956794E-013
 0.957151E-013
 0.957474E-013
 0.957763E-013
 0.958017E-013
 0.958236E-013
 0.958419E-013
 0.958566E-013
 0.958677E-013
 0.958750E-013
 0.958787E-013
 0.958787E-013
 0.958750E-013
 0.958676E-013
 0.958566E-013
 0.958419E-013
 0.958235E-013
 0.958016E-013
 0.957762E-013
 0.957473E-013
 0.957149E-013
 0.956793E-013
 0.956403E-013
 0.955981E-013
 0.955528E-013
 0.955045E-013
 0.954532E-013
 0.953991E-013
 0.953422E-013
 0.952826E-013
 0.952205E-013
 0.951560E-013
 0.950891E-013
 0.950199E-013
 0.949486E-013
 0.948753E-013
 0.948001E-013
 0.947230E-013
 0.946442E-013
 0.945637E-013
 0.944817E-013
 0.943983E-013
 0.943135E-013
 0.942274E-013
 0.941402E-013
 0.940519E-013
 0.939625E-013
 0.938722E-013
 0.937810E-013
 0.936890E-013
 0.935963E-013
 0.935028E-013
 0.934088E-013
 0.933141E-013
 0.932189E-013
 0.931232E-013
 0.930271E-013
 0.929305E-013
 0.928336E-013
 0.927363E-013
 0.926387E-013
 0.925407E-013
 0.924425E-013
 0.923441E-013
 0.922454E-013
 0.921464E-013
 0.920472E-013
 0.919479E-013
 0.918483E-013
 0.917485E-013
 0.916487E-013
 0.915477E-013
 0.914539E-013
 0.913107E-013
 0.914182E-013
 0.913108E-013
 0.909744E-013
 0.910185E-013
 0.909820E-013
 0.909581E-013
 0.909328E-013
 0.909077E-013
 0.908826E-013
 0.908576E-013
 0.908327E-013
 0.908078E-013
 0.907830E-013
 0.907583E-013
 0.907337E-013
 0.907091E-013
 0.906847E-013
 0.906603E-013
 0.906360E-013
 0.906119E-013
 0.905879E-013
 0.905640E-013
 0.905402E-013
 0.905166E-013
 0.904931E-013
 0.904698E-013
 0.904467E-013
 0.904238E-013
 0.904012E-013
 0.903787E-013
 0.903565E-013
 0.903346E-013
 0.903129E-013
 0.902916E-013
 0.902706E-013
 0.902499E-013
 0.902296E-013
 0.902097E-013
 0.901902E-013
 0.901711E-013
 0.901525E-013
 0.901344E-013
 0.901168E-013
 0.900998E-013
 0.900833E-013
 0.900674E-013
 0.900521E-013
 0.900374E-013
 0.900234E-013
 0.900101E-013
 0.899975E-013
 0.899856E-013
 0.899745E-013
 0.899641E-013
 0.899546E-013
 0.899458E-013
 0.899379E-013
 0.899308E-013
 0.899245E-013
 0.899192E-013
 0.899147E-013
 0.899111E-013
 0.899084E-013
 0.899065E-013
 0.899056E-013
 0.899056E-013
 0.899066E-013
 0.899084E-013
 0.899111E-013
 0.899147E-013
 0.899192E-013
 0.899246E-013
 0.899308E-013
 0.899379E-013
 0.899458E-013
 0.899546E-013
 0.899642E-013
 0.899745E-013
 0.899857E-013
 0.899975E-013
 0.900102E-013
 0.900235E-013
 0.900375E-013
 0.900521E-013
 0.900674E-013
 0.900834E-013
 0.900999E-013
 0.901169E-013
 0.901345E-013
 0.901526E-013
 0.901712E-013
 0.901903E-013
 0.902098E-013
 0.902297E-013
 0.902500E-013
 0.902706E-013
 0.902917E-013
 0.903130E-013
 0.903347E-013
 0.903566E-013
 0.903788E-013
 0.904012E-013
 0.904239E-013
 0.904468E-013
 0.904699E-013
 0.904932E-013
 0.905167E-013
 0.905403E-013
 0.905640E-013
 0.905879E-013
 0.906120E-013
 0.906361E-013
 0.906604E-013
 0.906847E-013
 0.907092E-013
 0.907337E-013
 0.907584E-013
 0.907831E-013
 0.908078E-013
 0.908327E-013
 0.908576E-013
 0.908826E-013
 0.909077E-013
 0.909328E-013
 0.909582E-013
 0.909820E-013
 0.910185E-013
 0.909744E-013
 0.913107E-013
 0.914540E-013
 0.910185E-013
 0.911224E-013
 0.911106E-013
 0.911170E-013
 0.911211E-013
 0.911254E-013
 0.911297E-013
 0.911340E-013
 0.911382E-013
 0.911425E-013
 0.911467E-013
 0.911510E-013
 0.911552E-013
 0.911594E-013
 0.911636E-013
 0.911677E-013
 0.911719E-013
 0.911760E-013
 0.911801E-013
 0.911842E-013
 0.911883E-013
 0.911923E-013
 0.911963E-013
 0.912003E-013
 0.912043E-013
 0.912082E-013
 0.912121E-013
 0.912159E-013
 0.912197E-013
 0.912234E-013
 0.912272E-013
 0.912308E-013
 0.912344E-013
 0.912379E-013
 0.912414E-013
 0.912448E-013
 0.912482E-013
 0.912514E-013
 0.912546E-013
 0.912577E-013
 0.912607E-013
 0.912637E-013
 0.912665E-013
 0.912692E-013
 0.912719E-013
 0.912744E-013
 0.912768E-013
 0.912791E-013
 0.912812E-013
 0.912833E-013
 0.912852E-013
 0.912870E-013
 0.912886E-013
 0.912901E-013
 0.912915E-013
 0.912927E-013
 0.912938E-013
 0.912947E-013
 0.912955E-013
 0.912961E-013
 0.912966E-013
 0.912969E-013
 0.912971E-013
 0.912971E-013
 0.912969E-013
 0.912966E-013
 0.912961E-013
 0.912955E-013
 0.912947E-013
 0.912938E-013
 0.912927E-013
 0.912915E-013
 0.912901E-013
 0.912886E-013
 0.912870E-013
 0.912852E-013
 0.912833E-013
 0.912812E-013
 0.912791E-013
 0.912768E-013
 0.912744E-013
 0.912719E-013
 0.912692E-013
 0.912665E-013
 0.912637E-013
 0.912607E-013
 0.912577E-013
 0.912546E-013
 0.912514E-013
 0.912482E-013
 0.912448E-013
 0.912414E-013
 0.912379E-013
 0.912344E-013
 0.912308E-013
 0.912271E-013
 0.912234E-013
 0.912197E-013
 0.912159E-013
 0.912121E-013
 0.912082E-013
 0.912043E-013
 0.912003E-013
 0.911963E-013
 0.911923E-013
 0.911883E-013
 0.911842E-013
 0.911801E-013
 0.911760E-013
 0.911719E-013
 0.911677E-013
 0.911636E-013
 0.911594E-013
 0.911552E-013
 0.911510E-013
 0.911467E-013
 0.911425E-013
 0.911382E-013
 0.911340E-013
 0.911297E-013
 0.911254E-013
 0.911211E-013
 0.911170E-013
 0.911106E-013
 0.911224E-013
 0.910185E-013
 0.914539E-013
 0.915478E-013
 0.909820E-013
 0.911106E-013
 0.910891E-013
 0.910911E-013
 0.910903E-013
 0.910898E-013
 0.910892E-013
 0.910886E-013
 0.910881E-013
 0.910875E-013
 0.910870E-013
 0.910864E-013
 0.910859E-013
 0.910854E-013
 0.910848E-013
 0.910843E-013
 0.910837E-013
 0.910832E-013
 0.910827E-013
 0.910822E-013
 0.910817E-013
 0.910811E-013
 0.910806E-013
 0.910801E-013
 0.910796E-013
 0.910791E-013
 0.910786E-013
 0.910782E-013
 0.910777E-013
 0.910772E-013
 0.910768E-013
 0.910763E-013
 0.910759E-013
 0.910754E-013
 0.910750E-013
 0.910746E-013
 0.910742E-013
 0.910738E-013
 0.910734E-013
 0.910730E-013
 0.910727E-013
 0.910723E-013
 0.910720E-013
 0.910717E-013
 0.910714E-013
 0.910711E-013
 0.910708E-013
 0.910705E-013
 0.910703E-013
 0.910701E-013
 0.910699E-013
 0.910697E-013
 0.910695E-013
 0.910693E-013
 0.910691E-013
 0.910690E-013
 0.910689E-013
 0.910688E-013
 0.910687E-013
 0.910686E-013
 0.910686E-013
 0.910686E-013
 0.910685E-013
 0.910685E-013
 0.910686E-013
 0.910686E-013
 0.910686E-013
 0.910687E-013
 0.910688E-013
 0.910689E-013
 0.910690E-013
 0.910691E-013
 0.910693E-013
 0.910695E-013
 0.910697E-013
 0.910699E-013
 0.910701E-013
 0.910703E-013
 0.910705E-013
 0.910708E-013
 0.910711E-013
 0.910714E-013
 0.910717E-013
 0.910720E-013
 0.910723E-013
 0.910727E-013
 0.910730E-013
 0.910734E-013
 0.910738E-013
 0.910742E-013
 0.910746E-013
 0.910750E-013
 0.910754E-013
 0.910759E-013
 0.910763E-013
 0.910768E-013
 0.910772E-013
 0.910777E-013
 0.910782E-013
 0.910786E-013
 0.910791E-013
 0.910796E-013
 0.910801E-013
 0.910806E-013
 0.910811E-013
 0.910817E-013
 0.910822E-013
 0.910827E-013
 0.910832E-013
 0.910838E-013
 0.910843E-013
 0.910848E-013
 0.910854E-013
 0.910859E-013
 0.910865E-013
 0.910870E-013
 0.910875E-013
 0.910881E-013
 0.910887E-013
 0.910892E-013
 0.910898E-013
 0.910903E-013
 0.910911E-013
 0.910891E-013
 0.911106E-013
 0.909820E-013
 0.915477E-013
 0.916488E-013
 0.909581E-013
 0.911170E-013
 0.910911E-013
 0.910944E-013
 0.910942E-013
 0.910942E-013
 0.910943E-013
 0.910944E-013
 0.910944E-013
 0.910945E-013
 0.910945E-013
 0.910946E-013
 0.910946E-013
 0.910947E-013
 0.910948E-013
 0.910948E-013
 0.910949E-013
 0.910949E-013
 0.910950E-013
 0.910951E-013
 0.910951E-013
 0.910952E-013
 0.910952E-013
 0.910953E-013
 0.910954E-013
 0.910954E-013
 0.910955E-013
 0.910956E-013
 0.910956E-013
 0.910957E-013
 0.910958E-013
 0.910958E-013
 0.910959E-013
 0.910960E-013
 0.910960E-013
 0.910961E-013
 0.910962E-013
 0.910963E-013
 0.910963E-013
 0.910964E-013
 0.910965E-013
 0.910966E-013
 0.910966E-013
 0.910967E-013
 0.910968E-013
 0.910968E-013
 0.910969E-013
 0.910970E-013
 0.910970E-013
 0.910971E-013
 0.910972E-013
 0.910972E-013
 0.910973E-013
 0.910973E-013
 0.910974E-013
 0.910974E-013
 0.910974E-013
 0.910975E-013
 0.910975E-013
 0.910975E-013
 0.910975E-013
 0.910975E-013
 0.910975E-013
 0.910975E-013
 0.910975E-013
 0.910975E-013
 0.910975E-013
 0.910975E-013
 0.910975E-013
 0.910974E-013
 0.910974E-013
 0.910974E-013
 0.910973E-013
 0.910973E-013
 0.910972E-013
 0.910972E-013
 0.910971E-013
 0.910970E-013
 0.910970E-013
 0.910969E-013
 0.910968E-013
 0.910968E-013
 0.910967E-013
 0.910966E-013
 0.910966E-013
 0.910965E-013
 0.910964E-013
 0.910963E-013
 0.910963E-013
 0.910962E-013
 0.910961E-013
 0.910961E-013
 0.910960E-013
 0.910959E-013
 0.910958E-013
 0.910958E-013
 0.910957E-013
 0.910956E-013
 0.910956E-013
 0.910955E-013
 0.910954E-013
 0.910954E-013
 0.910953E-013
 0.910952E-013
 0.910952E-013
 0.910951E-013
 0.910951E-013
 0.910950E-013
 0.910949E-013
 0.910949E-013
 0.910948E-013
 0.910948E-013
 0.910947E-013
 0.910947E-013
 0.910946E-013
 0.910945E-013
 0.910945E-013
 0.910944E-013
 0.910944E-013
 0.910943E-013
 0.910943E-013
 0.910942E-013
 0.910944E-013
 0.910911E-013
 0.911170E-013
 0.909582E-013
 0.916486E-013
 0.917487E-013
 0.909328E-013
 0.911211E-013
 0.910903E-013
 0.910942E-013
 0.910938E-013
 0.910938E-013
 0.910938E-013
 0.910938E-013
 0.910938E-013
 0.910938E-013
 0.910938E-013
 0.910938E-013
 0.910937E-013
 0.910937E-013
 0.910937E-013
 0.910937E-013
 0.910937E-013
 0.910937E-013
 0.910937E-013
 0.910937E-013
 0.910937E-013
 0.910938E-013
 0.910938E-013
 0.910938E-013
 0.910938E-013
 0.910938E-013
 0.910938E-013
 0.910938E-013
 0.910938E-013
 0.910938E-013
 0.910939E-013
 0.910939E-013
 0.910939E-013
 0.910939E-013
 0.910939E-013
 0.910940E-013
 0.910940E-013
 0.910940E-013
 0.910941E-013
 0.910941E-013
 0.910941E-013
 0.910942E-013
 0.910942E-013
 0.910943E-013
 0.910943E-013
 0.910943E-013
 0.910944E-013
 0.910944E-013
 0.910945E-013
 0.910945E-013
 0.910945E-013
 0.910946E-013
 0.910946E-013
 0.910946E-013
 0.910947E-013
 0.910947E-013
 0.910947E-013
 0.910947E-013
 0.910948E-013
 0.910948E-013
 0.910948E-013
 0.910948E-013
 0.910948E-013
 0.910948E-013
 0.910948E-013
 0.910948E-013
 0.910948E-013
 0.910948E-013
 0.910947E-013
 0.910947E-013
 0.910947E-013
 0.910947E-013
 0.910946E-013
 0.910946E-013
 0.910946E-013
 0.910945E-013
 0.910945E-013
 0.910945E-013
 0.910944E-013
 0.910944E-013
 0.910943E-013
 0.910943E-013
 0.910943E-013
 0.910942E-013
 0.910942E-013
 0.910941E-013
 0.910941E-013
 0.910941E-013
 0.910940E-013
 0.910940E-013
 0.910940E-013
 0.910940E-013
 0.910939E-013
 0.910939E-013
 0.910939E-013
 0.910939E-013
 0.910938E-013
 0.910938E-013
 0.910938E-013
 0.910938E-013
 0.910938E-013
 0.910938E-013
 0.910938E-013
 0.910938E-013
 0.910938E-013
 0.910938E-013
 0.910938E-013
 0.910938E-013
 0.910937E-013
 0.910938E-013
 0.910938E-013
 0.910938E-013
 0.910938E-013
 0.910938E-013
 0.910938E-013
 0.910938E-013
 0.910938E-013
 0.910938E-013
 0.910938E-013
 0.910938E-013
 0.910938E-013
 0.910938E-013
 0.910942E-013
 0.910903E-013
 0.911211E-013
 0.909328E-013
 0.917485E-013
 0.918485E-013
 0.909077E-013
 0.911254E-013
 0.910898E-013
 0.910942E-013
 0.910938E-013
 0.910938E-013
 0.910938E-013
 0.910938E-013
 0.910938E-013
 0.910938E-013
 0.910938E-013
 0.910938E-013
 0.910938E-013
 0.910938E-013
 0.910938E-013
 0.910938E-013
 0.910938E-013
 0.910938E-013
 0.910939E-013
 0.910939E-013
 0.910939E-013
 0.910939E-013
 0.910939E-013
 0.910939E-013
 0.910939E-013
 0.910939E-013
 0.910940E-013
 0.910940E-013
 0.910940E-013
 0.910940E-013
 0.910941E-013
 0.910941E-013
 0.910941E-013
 0.910942E-013
 0.910942E-013
 0.910942E-013
 0.910943E-013
 0.910943E-013
 0.910944E-013
 0.910944E-013
 0.910945E-013
 0.910945E-013
 0.910946E-013
 0.910946E-013
 0.910947E-013
 0.910947E-013
 0.910948E-013
 0.910948E-013
 0.910949E-013
 0.910949E-013
 0.910950E-013
 0.910950E-013
 0.910951E-013
 0.910951E-013
 0.910951E-013
 0.910952E-013
 0.910952E-013
 0.910952E-013
 0.910953E-013
 0.910953E-013
 0.910953E-013
 0.910953E-013
 0.910953E-013
 0.910953E-013
 0.910953E-013
 0.910953E-013
 0.910953E-013
 0.910953E-013
 0.910952E-013
 0.910952E-013
 0.910952E-013
 0.910951E-013
 0.910951E-013
 0.910951E-013
 0.910950E-013
 0.910950E-013
 0.910949E-013
 0.910949E-013
 0.910948E-013
 0.910948E-013
 0.910947E-013
 0.910947E-013
 0.910946E-013
 0.910946E-013
 0.910945E-013
 0.910945E-013
 0.910944E-013
 0.910944E-013
 0.910943E-013
 0.910943E-013
 0.910942E-013
 0.910942E-013
 0.910942E-013
 0.910941E-013
 0.910941E-013
 0.910941E-013
 0.910940E-013
 0.910940E-013
 0.910940E-013
 0.910940E-013
 0.910940E-013
 0.910939E-013
 0.910939E-013
 0.910939E-013
 0.910939E-013
 0.910939E-013
 0.910939E-013
 0.910939E-013
 0.910939E-013
 0.910939E-013
 0.910938E-013
 0.910938E-013
 0.910938E-013
 0.910938E-013
 0.910938E-013
 0.910938E-013
 0.910938E-013
 0.910938E-013
 0.910938E-013
 0.910938E-013
 0.910938E-013
 0.910938E-013
 0.910943E-013
 0.910898E-013
 0.911254E-013
 0.909077E-013
 0.918483E-013
 0.919481E-013
 0.908826E-013
 0.911297E-013
 0.910892E-013
 0.910943E-013
 0.910938E-013
 0.910938E-013
 0.910938E-013
 0.910938E-013
 0.910938E-013
 0.910938E-013
 0.910938E-013
 0.910938E-013
 0.910938E-013
 0.910938E-013
 0.910938E-013
 0.910938E-013
 0.910938E-013
 0.910938E-013
 0.910939E-013
 0.910939E-013
 0.910939E-013
 0.910939E-013
 0.910939E-013
 0.910939E-013
 0.910939E-013
 0.910940E-013
 0.910940E-013
 0.910940E-013
 0.910940E-013
 0.910941E-013
 0.910941E-013
 0.910941E-013
 0.910942E-013
 0.910942E-013
 0.910943E-013
 0.910943E-013
 0.910944E-013
 0.910944E-013
 0.910945E-013
 0.910945E-013
 0.910946E-013
 0.910946E-013
 0.910947E-013
 0.910947E-013
 0.910948E-013
 0.910949E-013
 0.910949E-013
 0.910950E-013
 0.910951E-013
 0.910951E-013
 0.910952E-013
 0.910952E-013
 0.910953E-013
 0.910953E-013
 0.910954E-013
 0.910954E-013
 0.910954E-013
 0.910955E-013
 0.910955E-013
 0.910955E-013
 0.910955E-013
 0.910956E-013
 0.910956E-013
 0.910956E-013
 0.910956E-013
 0.910955E-013
 0.910955E-013
 0.910955E-013
 0.910955E-013
 0.910955E-013
 0.910954E-013
 0.910954E-013
 0.910953E-013
 0.910953E-013
 0.910952E-013
 0.910952E-013
 0.910951E-013
 0.910951E-013
 0.910950E-013
 0.910949E-013
 0.910949E-013
 0.910948E-013
 0.910948E-013
 0.910947E-013
 0.910946E-013
 0.910946E-013
 0.910945E-013
 0.910945E-013
 0.910944E-013
 0.910944E-013
 0.910943E-013
 0.910943E-013
 0.910942E-013
 0.910942E-013
 0.910941E-013
 0.910941E-013
 0.910941E-013
 0.910940E-013
 0.910940E-013
 0.910940E-013
 0.910940E-013
 0.910940E-013
 0.910939E-013
 0.910939E-013
 0.910939E-013
 0.910939E-013
 0.910939E-013
 0.910939E-013
 0.910939E-013
 0.910939E-013
 0.910938E-013
 0.910938E-013
 0.910938E-013
 0.910938E-013
 0.910938E-013
 0.910938E-013
 0.910938E-013
 0.910938E-013
 0.910938E-013
 0.910938E-013
 0.910938E-013
 0.910938E-013
 0.910943E-013
 0.910892E-013
 0.911297E-013
 0.908827E-013
 0.919479E-013
 0.920474E-013
 0.908576E-013
 0.911340E-013
 0.910886E-013
 0.910944E-013
 0.910938E-013
 0.910938E-013
 0.910938E-013
 0.910938E-013
 0.910938E-013
 0.910938E-013
 0.910938E-013
 0.910938E-013
 0.910938E-013
 0.910938E-013
 0.910938E-013
 0.910938E-013
 0.910938E-013
 0.910939E-013
 0.910939E-013
 0.910939E-013
 0.910939E-013
 0.910939E-013
 0.910939E-013
 0.910939E-013
 0.910940E-013
 0.910940E-013
 0.910940E-013
 0.910941E-013
 0.910941E-013
 0.910941E-013
 0.910942E-013
 0.910942E-013
 0.910942E-013
 0.910943E-013
 0.910943E-013
 0.910944E-013
 0.910945E-013
 0.910945E-013
 0.910946E-013
 0.910947E-013
 0.910947E-013
 0.910948E-013
 0.910949E-013
 0.910949E-013
 0.910950E-013
 0.910951E-013
 0.910952E-013
 0.910952E-013
 0.910953E-013
 0.910954E-013
 0.910954E-013
 0.910955E-013
 0.910956E-013
 0.910956E-013
 0.910957E-013
 0.910957E-013
 0.910958E-013
 0.910958E-013
 0.910958E-013
 0.910959E-013
 0.910959E-013
 0.910959E-013
 0.910959E-013
 0.910959E-013
 0.910959E-013
 0.910959E-013
 0.910959E-013
 0.910958E-013
 0.910958E-013
 0.910958E-013
 0.910957E-013
 0.910957E-013
 0.910956E-013
 0.910956E-013
 0.910955E-013
 0.910954E-013
 0.910954E-013
 0.910953E-013
 0.910952E-013
 0.910952E-013
 0.910951E-013
 0.910950E-013
 0.910949E-013
 0.910949E-013
 0.910948E-013
 0.910947E-013
 0.910947E-013
 0.910946E-013
 0.910945E-013
 0.910945E-013
 0.910944E-013
 0.910944E-013
 0.910943E-013
 0.910943E-013
 0.910942E-013
 0.910942E-013
 0.910941E-013
 0.910941E-013
 0.910941E-013
 0.910940E-013
 0.910940E-013
 0.910940E-013
 0.910940E-013
 0.910939E-013
 0.910939E-013
 0.910939E-013
 0.910939E-013
 0.910939E-013
 0.910939E-013
 0.910939E-013
 0.910939E-013
 0.910938E-013
 0.910938E-013
 0.910938E-013
 0.910938E-013
 0.910938E-013
 0.910938E-013
 0.910938E-013
 0.910938E-013
 0.910938E-013
 0.910938E-013
 0.910938E-013
 0.910944E-013
 0.910887E-013
 0.911340E-013
 0.908577E-013
 0.920472E-013
 0.921466E-013
 0.908327E-013
 0.911382E-013
 0.910881E-013
 0.910944E-013
 0.910938E-013
 0.910938E-013
 0.910938E-013
 0.910938E-013
 0.910938E-013
 0.910938E-013
 0.910938E-013
 0.910938E-013
 0.910938E-013
 0.910938E-013
 0.910938E-013
 0.910938E-013
 0.910939E-013
 0.910939E-013
 0.910939E-013
 0.910939E-013
 0.910939E-013
 0.910939E-013
 0.910940E-013
 0.910940E-013
 0.910940E-013
 0.910940E-013
 0.910941E-013
 0.910941E-013
 0.910941E-013
 0.910942E-013
 0.910942E-013
 0.910943E-013
 0.910943E-013
 0.910944E-013
 0.910945E-013
 0.910945E-013
 0.910946E-013
 0.910947E-013
 0.910947E-013
 0.910948E-013
 0.910949E-013
 0.910950E-013
 0.910951E-013
 0.910951E-013
 0.910952E-013
 0.910953E-013
 0.910954E-013
 0.910955E-013
 0.910956E-013
 0.910957E-013
 0.910957E-013
 0.910958E-013
 0.910959E-013
 0.910960E-013
 0.910960E-013
 0.910961E-013
 0.910961E-013
 0.910962E-013
 0.910962E-013
 0.910962E-013
 0.910963E-013
 0.910963E-013
 0.910963E-013
 0.910963E-013
 0.910963E-013
 0.910963E-013
 0.910962E-013
 0.910962E-013
 0.910962E-013
 0.910961E-013
 0.910961E-013
 0.910960E-013
 0.910960E-013
 0.910959E-013
 0.910958E-013
 0.910957E-013
 0.910957E-013
 0.910956E-013
 0.910955E-013
 0.910954E-013
 0.910953E-013
 0.910952E-013
 0.910952E-013
 0.910951E-013
 0.910950E-013
 0.910949E-013
 0.910948E-013
 0.910947E-013
 0.910947E-013
 0.910946E-013
 0.910945E-013
 0.910945E-013
 0.910944E-013
 0.910944E-013
 0.910943E-013
 0.910942E-013
 0.910942E-013
 0.910942E-013
 0.910941E-013
 0.910941E-013
 0.910940E-013
 0.910940E-013
 0.910940E-013
 0.910940E-013
 0.910939E-013
 0.910939E-013
 0.910939E-013
 0.910939E-013
 0.910939E-013
 0.910939E-013
 0.910939E-013
 0.910939E-013
 0.910938E-013
 0.910938E-013
 0.910938E-013
 0.910938E-013
 0.910938E-013
 0.910938E-013
 0.910938E-013
 0.910938E-013
 0.910938E-013
 0.910938E-013
 0.910944E-013
 0.910881E-013
 0.911383E-013
 0.908327E-013
 0.921464E-013
 0.922456E-013
 0.908078E-013
 0.911425E-013
 0.910875E-013
 0.910945E-013
 0.910938E-013
 0.910938E-013
 0.910938E-013
 0.910938E-013
 0.910938E-013
 0.910938E-013
 0.910938E-013
 0.910938E-013
 0.910938E-013
 0.910938E-013
 0.910938E-013
 0.910939E-013
 0.910939E-013
 0.910939E-013
 0.910939E-013
 0.910939E-013
 0.910939E-013
 0.910940E-013
 0.910940E-013
 0.910940E-013
 0.910940E-013
 0.910941E-013
 0.910941E-013
 0.910942E-013
 0.910942E-013
 0.910943E-013
 0.910943E-013
 0.910944E-013
 0.910944E-013
 0.910945E-013
 0.910946E-013
 0.910947E-013
 0.910947E-013
 0.910948E-013
 0.910949E-013
 0.910950E-013
 0.910951E-013
 0.910952E-013
 0.910953E-013
 0.910954E-013
 0.910955E-013
 0.910956E-013
 0.910957E-013
 0.910958E-013