# vtk DataFile Version 3.0
Solution data
ASCII
DATASET STRUCTURED_GRID
DIMENSIONS 128 128 1
POINTS 16384  double
      0.000004      0.000004      0.000000
      0.000012      0.000004      0.000000
      0.000020      0.000004      0.000000
      0.000027      0.000004      0.000000
      0.000035      0.000004      0.000000
      0.000043      0.000004      0.000000
      0.000051      0.000004      0.000000
      0.000059      0.000004      0.000000
      0.000066      0.000004      0.000000
      0.000074      0.000004      0.000000
      0.000082      0.000004      0.000000
      0.000090      0.000004      0.000000
      0.000098      0.000004      0.000000
      0.000105      0.000004      0.000000
      0.000113      0.000004      0.000000
      0.000121      0.000004      0.000000
      0.000129      0.000004      0.000000
      0.000137      0.000004      0.000000
      0.000145      0.000004      0.000000
      0.000152      0.000004      0.000000
      0.000160      0.000004      0.000000
      0.000168      0.000004      0.000000
      0.000176      0.000004      0.000000
      0.000184      0.000004      0.000000
      0.000191      0.000004      0.000000
      0.000199      0.000004      0.000000
      0.000207      0.000004      0.000000
      0.000215      0.000004      0.000000
      0.000223      0.000004      0.000000
      0.000230      0.000004      0.000000
      0.000238      0.000004      0.000000
      0.000246      0.000004      0.000000
      0.000254      0.000004      0.000000
      0.000262      0.000004      0.000000
      0.000270      0.000004      0.000000
      0.000277      0.000004      0.000000
      0.000285      0.000004      0.000000
      0.000293      0.000004      0.000000
      0.000301      0.000004      0.000000
      0.000309      0.000004      0.000000
      0.000316      0.000004      0.000000
      0.000324      0.000004      0.000000
      0.000332      0.000004      0.000000
      0.000340      0.000004      0.000000
      0.000348      0.000004      0.000000
      0.000355      0.000004      0.000000
      0.000363      0.000004      0.000000
      0.000371      0.000004      0.000000
      0.000379      0.000004      0.000000
      0.000387      0.000004      0.000000
      0.000395      0.000004      0.000000
      0.000402      0.000004      0.000000
      0.000410      0.000004      0.000000
      0.000418      0.000004      0.000000
      0.000426      0.000004      0.000000
      0.000434      0.000004      0.000000
      0.000441      0.000004      0.000000
      0.000449      0.000004      0.000000
      0.000457      0.000004      0.000000
      0.000465      0.000004      0.000000
      0.000473      0.000004      0.000000
      0.000480      0.000004      0.000000
      0.000488      0.000004      0.000000
      0.000496      0.000004      0.000000
      0.000504      0.000004      0.000000
      0.000512      0.000004      0.000000
      0.000520      0.000004      0.000000
      0.000527      0.000004      0.000000
      0.000535      0.000004      0.000000
      0.000543      0.000004      0.000000
      0.000551      0.000004      0.000000
      0.000559      0.000004      0.000000
      0.000566      0.000004      0.000000
      0.000574      0.000004      0.000000
      0.000582      0.000004      0.000000
      0.000590      0.000004      0.000000
      0.000598      0.000004      0.000000
      0.000605      0.000004      0.000000
      0.000613      0.000004      0.000000
      0.000621      0.000004      0.000000
      0.000629      0.000004      0.000000
      0.000637      0.000004      0.000000
      0.000645      0.000004      0.000000
      0.000652      0.000004      0.000000
      0.000660      0.000004      0.000000
      0.000668      0.000004      0.000000
      0.000676      0.000004      0.000000
      0.000684      0.000004      0.000000
      0.000691      0.000004      0.000000
      0.000699      0.000004      0.000000
      0.000707      0.000004      0.000000
      0.000715      0.000004      0.000000
      0.000723      0.000004      0.000000
      0.000730      0.000004      0.000000
      0.000738      0.000004      0.000000
      0.000746      0.000004      0.000000
      0.000754      0.000004      0.000000
      0.000762      0.000004      0.000000
      0.000770      0.000004      0.000000
      0.000777      0.000004      0.000000
      0.000785      0.000004      0.000000
      0.000793      0.000004      0.000000
      0.000801      0.000004      0.000000
      0.000809      0.000004      0.000000
      0.000816      0.000004      0.000000
      0.000824      0.000004      0.000000
      0.000832      0.000004      0.000000
      0.000840      0.000004      0.000000
      0.000848      0.000004      0.000000
      0.000855      0.000004      0.000000
      0.000863      0.000004      0.000000
      0.000871      0.000004      0.000000
      0.000879      0.000004      0.000000
      0.000887      0.000004      0.000000
      0.000895      0.000004      0.000000
      0.000902      0.000004      0.000000
      0.000910      0.000004      0.000000
      0.000918      0.000004      0.000000
      0.000926      0.000004      0.000000
      0.000934      0.000004      0.000000
      0.000941      0.000004      0.000000
      0.000949      0.000004      0.000000
      0.000957      0.000004      0.000000
      0.000965      0.000004      0.000000
      0.000973      0.000004      0.000000
      0.000980      0.000004      0.000000
      0.000988      0.000004      0.000000
      0.000996      0.000004      0.000000
      0.000004      0.000012      0.000000
      0.000012      0.000012      0.000000
      0.000020      0.000012      0.000000
      0.000027      0.000012      0.000000
      0.000035      0.000012      0.000000
      0.000043      0.000012      0.000000
      0.000051      0.000012      0.000000
      0.000059      0.000012      0.000000
      0.000066      0.000012      0.000000
      0.000074      0.000012      0.000000
      0.000082      0.000012      0.000000
      0.000090      0.000012      0.000000
      0.000098      0.000012      0.000000
      0.000105      0.000012      0.000000
      0.000113      0.000012      0.000000
      0.000121      0.000012      0.000000
      0.000129      0.000012      0.000000
      0.000137      0.000012      0.000000
      0.000145      0.000012      0.000000
      0.000152      0.000012      0.000000
      0.000160      0.000012      0.000000
      0.000168      0.000012      0.000000
      0.000176      0.000012      0.000000
      0.000184      0.000012      0.000000
      0.000191      0.000012      0.000000
      0.000199      0.000012      0.000000
      0.000207      0.000012      0.000000
      0.000215      0.000012      0.000000
      0.000223      0.000012      0.000000
      0.000230      0.000012      0.000000
      0.000238      0.000012      0.000000
      0.000246      0.000012      0.000000
      0.000254      0.000012      0.000000
      0.000262      0.000012      0.000000
      0.000270      0.000012      0.000000
      0.000277      0.000012      0.000000
      0.000285      0.000012      0.000000
      0.000293      0.000012      0.000000
      0.000301      0.000012      0.000000
      0.000309      0.000012      0.000000
      0.000316      0.000012      0.000000
      0.000324      0.000012      0.000000
      0.000332      0.000012      0.000000
      0.000340      0.000012      0.000000
      0.000348      0.000012      0.000000
      0.000355      0.000012      0.000000
      0.000363      0.000012      0.000000
      0.000371      0.000012      0.000000
      0.000379      0.000012      0.000000
      0.000387      0.000012      0.000000
      0.000395      0.000012      0.000000
      0.000402      0.000012      0.000000
      0.000410      0.000012      0.000000
      0.000418      0.000012      0.000000
      0.000426      0.000012      0.000000
      0.000434      0.000012      0.000000
      0.000441      0.000012      0.000000
      0.000449      0.000012      0.000000
      0.000457      0.000012      0.000000
      0.000465      0.000012      0.000000
      0.000473      0.000012      0.000000
      0.000480      0.000012      0.000000
      0.000488      0.000012      0.000000
      0.000496      0.000012      0.000000
      0.000504      0.000012      0.000000
      0.000512      0.000012      0.000000
      0.000520      0.000012      0.000000
      0.000527      0.000012      0.000000
      0.000535      0.000012      0.000000
      0.000543      0.000012      0.000000
      0.000551      0.000012      0.000000
      0.000559      0.000012      0.000000
      0.000566      0.000012      0.000000
      0.000574      0.000012      0.000000
      0.000582      0.000012      0.000000
      0.000590      0.000012      0.000000
      0.000598      0.000012      0.000000
      0.000605      0.000012      0.000000
      0.000613      0.000012      0.000000
      0.000621      0.000012      0.000000
      0.000629      0.000012      0.000000
      0.000637      0.000012      0.000000
      0.000645      0.000012      0.000000
      0.000652      0.000012      0.000000
      0.000660      0.000012      0.000000
      0.000668      0.000012      0.000000
      0.000676      0.000012      0.000000
      0.000684      0.000012      0.000000
      0.000691      0.000012      0.000000
      0.000699      0.000012      0.000000
      0.000707      0.000012      0.000000
      0.000715      0.000012      0.000000
      0.000723      0.000012      0.000000
      0.000730      0.000012      0.000000
      0.000738      0.000012      0.000000
      0.000746      0.000012      0.000000
      0.000754      0.000012      0.000000
      0.000762      0.000012      0.000000
      0.000770      0.000012      0.000000
      0.000777      0.000012      0.000000
      0.000785      0.000012      0.000000
[...]
POINT_DATA 16384
SCALARS rhoe double
LOOKUP_TABLE default
 0.913911E-013
 0.913033E-013
 0.914347E-013
 0.915273E-013
 0.916248E-013
 0.917217E-013
 0.918184E-013
 0.919149E-013
 0.920112E-013
 0.921074E-013
 0.922033E-013
 0.922991E-013
 0.923946E-013
 0.924899E-013
 0.925849E-013
 0.926796E-013
 0.927741E-013
 0.928682E-013
 0.929619E-013
 0.930553E-013
 0.931482E-013
 0.932407E-013
 0.933326E-013
 0.934240E-013
 0.935148E-013
 0.936050E-013
 0.936944E-013
 0.937831E-013
 0.938709E-013
 0.939578E-013
 0.940437E-013
 0.941286E-013
 0.942123E-013
 0.942948E-013
 0.943760E-013
 0.944559E-013
 0.945342E-013
 0.946109E-013
 0.946860E-013
 0.947593E-013
 0.948307E-013
 0.949002E-013
 0.949676E-013
 0.950328E-013
 0.950957E-013
 0.951562E-013
 0.952143E-013
 0.952697E-013
 0.953225E-013
 0.953725E-013
 0.954196E-013
 0.954638E-013
 0.955050E-013
 0.955430E-013
 0.955778E-013
 0.956093E-013
 0.956375E-013
 0.956623E-013
 0.956837E-013
 0.957015E-013
 0.957159E-013
 0.957267E-013
 0.957339E-013
 0.957375E-013
 0.957375E-013
 0.957338E-013
 0.957266E-013
 0.957158E-013
 0.957015E-013
 0.956836E-013
 0.956622E-013
 0.956374E-013
 0.956092E-013
 0.955776E-013
 0.955428E-013
 0.955048E-013
 0.954636E-013
 0.954194E-013
 0.953723E-013
 0.953222E-013
 0.952695E-013
 0.952140E-013
 0.951559E-013
 0.950954E-013
 0.950324E-013
 0.949672E-013
 0.948999E-013
 0.948304E-013
 0.947590E-013
 0.946856E-013
 0.946106E-013
 0.945338E-013
 0.944555E-013
 0.943757E-013
 0.942944E-013
 0.942119E-013
 0.941282E-013
 0.940433E-013
 0.939574E-013
 0.938705E-013
 0.937827E-013
 0.936940E-013
 0.936046E-013
 0.935145E-013
 0.934237E-013
 0.933323E-013
 0.932403E-013
 0.931478E-013
 0.930549E-013
 0.929616E-013
 0.928678E-013
 0.927737E-013
 0.926793E-013
 0.925846E-013
 0.924896E-013
 0.923943E-013
 0.922988E-013
 0.922031E-013
 0.921071E-013
 0.920110E-013
 0.919147E-013
 0.918182E-013
 0.917215E-013
 0.916247E-013
 0.915272E-013
 0.914347E-013
 0.913033E-013
 0.913910E-013
 0.913033E-013
 0.909942E-013
 0.910296E-013
 0.910000E-013
 0.909794E-013
 0.909579E-013
 0.909365E-013
 0.909152E-013
 0.908939E-013
 0.908727E-013
 0.908516E-013
 0.908305E-013
 0.908094E-013
 0.907885E-013
 0.907676E-013
 0.907468E-013
 0.907260E-013
 0.907054E-013
 0.906848E-013
 0.906643E-013
 0.906440E-013
 0.906237E-013
 0.906036E-013
 0.905836E-013
 0.905638E-013
 0.905441E-013
 0.905246E-013
 0.905053E-013
 0.904861E-013
 0.904672E-013
 0.904485E-013
 0.904301E-013
 0.904119E-013
 0.903939E-013
 0.903763E-013
 0.903590E-013
 0.903420E-013
 0.903254E-013
 0.903091E-013
 0.902933E-013
 0.902778E-013
 0.902628E-013
 0.902482E-013
 0.902342E-013
 0.902206E-013
 0.902075E-013
 0.901950E-013
 0.901831E-013
 0.901717E-013
 0.901609E-013
 0.901508E-013
 0.901413E-013
 0.901324E-013
 0.901243E-013
 0.901168E-013
 0.901100E-013
 0.901040E-013
 0.900986E-013
 0.900940E-013
 0.900902E-013
 0.900871E-013
 0.900848E-013
 0.900833E-013
 0.900825E-013
 0.900825E-013
 0.900833E-013
 0.900848E-013
 0.900871E-013
 0.900902E-013
 0.900941E-013
 0.900987E-013
 0.901040E-013
 0.901100E-013
 0.901168E-013
 0.901243E-013
 0.901325E-013
 0.901413E-013
 0.901508E-013
 0.901610E-013
 0.901717E-013
 0.901831E-013
 0.901951E-013
 0.902076E-013
 0.902206E-013
 0.902342E-013
 0.902483E-013
 0.902629E-013
 0.902779E-013
 0.902933E-013
 0.903092E-013
 0.903254E-013
 0.903421E-013
 0.903591E-013
 0.903764E-013
 0.903940E-013
 0.904119E-013
 0.904301E-013
 0.904486E-013
 0.904673E-013
 0.904862E-013
 0.905053E-013
 0.905247E-013
 0.905442E-013
 0.905639E-013
 0.905837E-013
 0.906037E-013
 0.906238E-013
 0.906441E-013
 0.906644E-013
 0.906849E-013
 0.907054E-013
 0.907261E-013
 0.907468E-013
 0.907676E-013
 0.907885E-013
 0.908095E-013
 0.908305E-013
 0.908516E-013
 0.908728E-013
 0.908940E-013
 0.909152E-013
 0.909366E-013
 0.909579E-013
 0.909794E-013
 0.910000E-013
 0.910296E-013
 0.909942E-013
 0.913033E-013
 0.914347E-013
 0.910296E-013
 0.911148E-013
 0.911064E-013
 0.911109E-013
 0.911140E-013
 0.911172E-013
 0.911204E-013
 0.911235E-013
 0.911267E-013
 0.911299E-013
 0.911330E-013
 0.911362E-013
 0.911393E-013
 0.911424E-013
 0.911455E-013
 0.911487E-013
 0.911517E-013
 0.911548E-013
 0.911579E-013
 0.911609E-013
 0.911639E-013
 0.911669E-013
 0.911699E-013
 0.911729E-013
 0.911758E-013
 0.911788E-013
 0.911817E-013
 0.911845E-013
 0.911874E-013
 0.911902E-013
 0.911929E-013
 0.911956E-013
 0.911983E-013
 0.912010E-013
 0.912036E-013
 0.912061E-013
 0.912086E-013
 0.912111E-013
 0.912135E-013
 0.912158E-013
 0.912181E-013
 0.912202E-013
 0.912224E-013
 0.912244E-013
 0.912264E-013
 0.912283E-013
 0.912301E-013
 0.912318E-013
 0.912334E-013
 0.912350E-013
 0.912364E-013
 0.912378E-013
 0.912390E-013
 0.912401E-013
 0.912412E-013
 0.912421E-013
 0.912429E-013
 0.912436E-013
 0.912442E-013
 0.912447E-013
 0.912450E-013
 0.912452E-013
 0.912454E-013
 0.912454E-013
 0.912452E-013
 0.912450E-013
 0.912447E-013
 0.912442E-013
 0.912436E-013
 0.912429E-013
 0.912421E-013
 0.912412E-013
 0.912401E-013
 0.912390E-013
 0.912378E-013
 0.912364E-013
 0.912350E-013
 0.912334E-013
 0.912318E-013
 0.912301E-013
 0.912283E-013
 0.912264E-013
 0.912244E-013
 0.912224E-013
 0.912202E-013
 0.912181E-013
 0.912158E-013
 0.912135E-013
 0.912111E-013
 0.912086E-013
 0.912061E-013
 0.912036E-013
 0.912010E-013
 0.911983E-013
 0.911956E-013
 0.911929E-013
 0.911902E-013
 0.911874E-013
 0.911845E-013
 0.911817E-013
 0.911788E-013
 0.911758E-013
 0.911729E-013
 0.911699E-013
 0.911669E-013
 0.911639E-013
 0.911609E-013
 0.911579E-013
 0.911548E-013
 0.911517E-013
 0.911487E-013
 0.911456E-013
 0.911424E-013
 0.911393E-013
 0.911362E-013
 0.911330E-013
 0.911299E-013
 0.911267E-013
 0.911235E-013
 0.911204E-013
 0.911172E-013
 0.911140E-013
 0.911109E-013
 0.911064E-013
 0.911148E-013
 0.910296E-013
 0.914347E-013
 0.915273E-013
 0.910000E-013
 0.911064E-013
 0.910908E-013
 0.910921E-013
 0.910916E-013
 0.910912E-013
 0.910908E-013
 0.910905E-013
 0.910901E-013
 0.910898E-013
 0.910894E-013
 0.910891E-013
 0.910887E-013
 0.910884E-013
 0.910880E-013
 0.910877E-013
 0.910873E-013
 0.910870E-013
 0.910866E-013
 0.910863E-013
 0.910860E-013
 0.910856E-013
 0.910853E-013
 0.910850E-013
 0.910847E-013
 0.910844E-013
 0.910840E-013
 0.910837E-013
 0.910834E-013
 0.910831E-013
 0.910829E-013
 0.910826E-013
 0.910823E-013
 0.910820E-013
 0.910818E-013
 0.910815E-013
 0.910813E-013
 0.910810E-013
 0.910808E-013
 0.910806E-013
 0.910804E-013
 0.910801E-013
 0.910799E-013
 0.910798E-013
 0.910796E-013
 0.910794E-013
 0.910792E-013
 0.910791E-013
 0.910790E-013
 0.910788E-013
 0.910787E-013
 0.910786E-013
 0.910785E-013
 0.910784E-013
 0.910783E-013
 0.910782E-013
 0.910782E-013
 0.910781E-013
 0.910781E-013
 0.910780E-013
 0.910780E-013
 0.910780E-013
 0.910780E-013
 0.910780E-013
 0.910780E-013
 0.910780E-013
 0.910780E-013
 0.910781E-013
 0.910781E-013
 0.910782E-013
 0.910782E-013
 0.910783E-013
 0.910784E-013
 0.910785E-013
 0.910786E-013
 0.910787E-013
 0.910788E-013
 0.910790E-013
 0.910791E-013
 0.910793E-013
 0.910794E-013
 0.910796E-013
 0.910798E-013
 0.910800E-013
 0.910801E-013
 0.910804E-013
 0.910806E-013
 0.910808E-013
 0.910810E-013
 0.910813E-013
 0.910815E-013
 0.910818E-013
 0.910820E-013
 0.910823E-013
 0.910826E-013
 0.910829E-013
 0.910831E-013
 0.910834E-013
 0.910837E-013
 0.910840E-013
 0.910844E-013
 0.910847E-013
 0.910850E-013
 0.910853E-013
 0.910856E-013
 0.910860E-013
 0.910863E-013
 0.910866E-013
 0.910870E-013
 0.910873E-013
 0.910877E-013
 0.910880E-013
 0.910884E-013
 0.910887E-013
 0.910891E-013
 0.910894E-013
 0.910898E-013
 0.910901E-013
 0.910905E-013
 0.910908E-013
 0.910912E-013
 0.910916E-013
 0.910921E-013
 0.910908E-013
 0.911064E-013
 0.910000E-013
 0.915272E-013
 0.916248E-013
 0.909794E-013
 0.911109E-013
 0.910921E-013
 0.910942E-013
 0.910940E-013
 0.910941E-013
 0.910941E-013
 0.910941E-013
 0.910942E-013
 0.910942E-013
 0.910942E-013
 0.910943E-013
 0.910943E-013
 0.910943E-013
 0.910944E-013
 0.910944E-013
 0.910944E-013
 0.910945E-013
 0.910945E-013
 0.910945E-013
 0.910946E-013
 0.910946E-013
 0.910947E-013
 0.910947E-013
 0.910947E-013
 0.910948E-013
 0.910948E-013
 0.910949E-013
 0.910949E-013
 0.910950E-013
 0.910950E-013
 0.910951E-013
 0.910952E-013
 0.910952E-013
 0.910953E-013
 0.910953E-013
 0.910954E-013
 0.910955E-013
 0.910955E-013
 0.910956E-013
 0.910956E-013
 0.910957E-013
 0.910958E-013
 0.910958E-013
 0.910959E-013
 0.910960E-013
 0.910960E-013
 0.910961E-013
 0.910962E-013
 0.910962E-013
 0.910963E-013
 0.910963E-013
 0.910964E-013
 0.910964E-013
 0.910965E-013
 0.910965E-013
 0.910966E-013
 0.910966E-013
 0.910966E-013
 0.910966E-013
 0.910967E-013
 0.910967E-013
 0.910967E-013
 0.910967E-013
 0.910967E-013
 0.910967E-013
 0.910966E-013
 0.910966E-013
 0.910966E-013
 0.910966E-013
 0.910965E-013
 0.910965E-013
 0.910964E-013
 0.910964E-013
 0.910963E-013
 0.910963E-013
 0.910962E-013
 0.910962E-013
 0.910961E-013
 0.910961E-013
 0.910960E-013
 0.910959E-013
 0.910959E-013
 0.910958E-013
 0.910957E-013
 0.910957E-013
 0.910956E-013
 0.910955E-013
 0.910955E-013
 0.910954E-013
 0.910953E-013
 0.910953E-013
 0.910952E-013
 0.910952E-013
 0.910951E-013
 0.910950E-013
 0.910950E-013
 0.910949E-013
 0.910949E-013
 0.910948E-013
 0.910948E-013
 0.910948E-013
 0.910947E-013
 0.910947E-013
 0.910946E-013
 0.910946E-013
 0.910945E-013
 0.910945E-013
 0.910945E-013
 0.910944E-013
 0.910944E-013
 0.910944E-013
 0.910943E-013
 0.910943E-013
 0.910943E-013
 0.910942E-013
 0.910942E-013
 0.910942E-013
 0.910941E-013
 0.910941E-013
 0.910941E-013
 0.910940E-013
 0.910942E-013
 0.910921E-013
 0.911109E-013
 0.909794E-013
 0.916247E-013
 0.917217E-013
 0.909579E-013
 0.911140E-013
 0.910916E-013
 0.910940E-013
 0.910938E-013
 0.910938E-013
 0.910938E-013
 0.910938E-013
 0.910938E-013
 0.910938E-013
 0.910938E-013
 0.910938E-013
 0.910938E-013
 0.910938E-013
 0.910938E-013
 0.910938E-013
 0.910938E-013
 0.910938E-013
 0.910938E-013
 0.910938E-013
 0.910938E-013
 0.910938E-013
 0.910938E-013
 0.910939E-013
 0.910939E-013
 0.910939E-013
 0.910939E-013
 0.910939E-013
 0.910939E-013
 0.910940E-013
 0.910940E-013
 0.910940E-013
 0.910941E-013
 0.910941E-013
 0.910941E-013
 0.910942E-013
 0.910942E-013
 0.910943E-013
 0.910943E-013
 0.910944E-013
 0.910944E-013
 0.910945E-013
 0.910945E-013
 0.910946E-013
 0.910946E-013
 0.910947E-013
 0.910947E-013
 0.910948E-013
 0.910948E-013
 0.910949E-013
 0.910949E-013
 0.910950E-013
 0.910950E-013
 0.910951E-013
 0.910951E-013
 0.910952E-013
 0.910952E-013
 0.910952E-013
 0.910952E-013
 0.910953E-013
 0.910953E-013
 0.910953E-013
 0.910953E-013
 0.910953E-013
 0.910953E-013
 0.910953E-013
 0.910953E-013
 0.910952E-013
 0.910952E-013
 0.910952E-013
 0.910952E-013
 0.910951E-013
 0.910951E-013
 0.910950E-013
 0.910950E-013
 0.910949E-013
 0.910949E-013
 0.910948E-013
 0.910948E-013
 0.910947E-013
 0.910947E-013
 0.910946E-013
 0.910946E-013
 0.910945E-013
 0.910945E-013
 0.910944E-013
 0.910944E-013
 0.910943E-013
 0.910943E-013
 0.910942E-013
 0.910942E-013
 0.910941E-013
 0.910941E-013
 0.910941E-013
 0.910940E-013
 0.910940E-013
 0.910940E-013
 0.910940E-013
 0.910939E-013
 0.910939E-013
 0.910939E-013
 0.910939E-013
 0.910939E-013
 0.910939E-013
 0.910938E-013
 0.910938E-013
 0.910938E-013
 0.910938E-013
 0.910938E-013
 0.910938E-013
 0.910938E-013
 0.910938E-013
 0.910938E-013
 0.910938E-013
 0.910938E-013
 0.910938E-013
 0.910938E-013
 0.910938E-013
 0.910938E-013
 0.910938E-013
 0.910938E-013
 0.910938E-013
 0.910940E-013
 0.910916E-013
 0.911140E-013
 0.909579E-013
 0.917215E-013
 0.918184E-013
 0.909365E-013
 0.911172E-013
 0.910912E-013
 0.910941E-013
 0.910938E-013
 0.910938E-013
 0.910938E-013
 0.910938E-013
 0.910938E-013
 0.910938E-013
 0.910938E-013
 0.910938E-013
 0.910938E-013
 0.910938E-013
 0.910938E-013
 0.910938E-013
 0.910938E-013
 0.910939E-013
 0.910939E-013
 0.910939E-013
 0.910939E-013
 0.910939E-013
 0.910939E-013
 0.910939E-013
 0.910940E-013
 0.910940E-013
 0.910940E-013
 0.910940E-013
 0.910941E-013
 0.910941E-013
 0.910941E-013
 0.910942E-013
 0.910942E-013
 0.910943E-013
 0.910943E-013
 0.910944E-013
 0.910944E-013
 0.910945E-013
 0.910945E-013
 0.910946E-013
 0.910946E-013
 0.910947E-013
 0.910948E-013
 0.910948E-013
 0.910949E-013
 0.910950E-013
 0.910950E-013
 0.910951E-013
 0.910952E-013
 0.910952E-013
 0.910953E-013
 0.910954E-013
 0.910954E-013
 0.910955E-013
 0.910955E-013
 0.910956E-013
 0.910956E-013
 0.910956E-013
 0.910957E-013
 0.910957E-013
 0.910957E-013
 0.910957E-013
 0.910957E-013
 0.910957E-013
 0.910957E-013
 0.910957E-013
 0.910957E-013
 0.910957E-013
 0.910956E-013
 0.910956E-013
 0.910956E-013
 0.910955E-013
 0.910955E-013
 0.910954E-013
 0.910954E-013
 0.910953E-013
 0.910952E-013
 0.910952E-013
 0.910951E-013
 0.910951E-013
 0.910950E-013
 0.910949E-013
 0.910949E-013
 0.910948E-013
 0.910947E-013
 0.910947E-013
 0.910946E-013
 0.910945E-013
 0.910945E-013
 0.910944E-013
 0.910944E-013
 0.910943E-013
 0.910943E-013
 0.910942E-013
 0.910942E-013
 0.910941E-013
 0.910941E-013
 0.910941E-013
 0.910940E-013
 0.910940E-013
 0.910940E-013
 0.910940E-013
 0.910940E-013
 0.910939E-013
 0.910939E-013
 0.910939E-013
 0.910939E-013
 0.910939E-013
 0.910939E-013
 0.910939E-013
 0.910939E-013
 0.910938E-013
 0.910938E-013
 0.910938E-013
 0.910938E-013
 0.910938E-013
 0.910938E-013
 0.910938E-013
 0.910938E-013
 0.910938E-013
 0.910938E-013
 0.910938E-013
 0.910941E-013
 0.910912E-013
 0.911172E-013
 0.909366E-013
 0.918182E-013
 0.919149E-013
 0.909152E-013
 0.911204E-013
 0.910908E-013
 0.910941E-013
 0.910938E-013
 0.910938E-013
 0.910938E-013
 0.910938E-013
 0.910938E-013
 0.910938E-013
 0.910938E-013
 0.910938E-013
 0.910938E-013
 0.910938E-013
 0.910938E-013
 0.910938E-013
 0.910939E-013
 0.910939E-013
 0.910939E-013
 0.910939E-013
 0.910939E-013
 0.910939E-013
 0.910939E-013
 0.910940E-013
 0.910940E-013
 0.910940E-013
 0.910940E-013
 0.910941E-013
 0.910941E-013
 0.910942E-013
 0.910942E-013
 0.910942E-013
 0.910943E-013
 0.910943E-013
 0.910944E-013
 0.910945E-013
 0.910945E-013
 0.910946E-013
 0.910947E-013
 0.910947E-013
 0.910948E-013
 0.910949E-013
 0.910950E-013
 0.910950E-013
 0.910951E-013
 0.910952E-013
 0.910953E-013
 0.910954E-013
 0.910954E-013
 0.910955E-013
 0.910956E-013
 0.910957E-013
 0.910957E-013
 0.910958E-013
 0.910958E-013
 0.910959E-013
 0.910959E-013
 0.910960E-013
 0.910960E-013
 0.910960E-013
 0.910961E-013
 0.910961E-013
 0.910961E-013
 0.910961E-013
 0.910961E-013
 0.910961E-013
 0.910961E-013
 0.910960E-013
 0.910960E-013
 0.910959E-013
 0.910959E-013
 0.910958E-013
 0.910958E-013
 0.910957E-013
 0.910957E-013
 0.910956E-013
 0.910955E-013
 0.910954E-013
 0.910954E-013
 0.910953E-013
 0.910952E-013
 0.910951E-013
 0.910950E-013
 0.910950E-013
 0.910949E-013
 0.910948E-013
 0.910947E-013
 0.910947E-013
 0.910946E-013
 0.910945E-013
 0.910945E-013
 0.910944E-013
 0.910944E-013
 0.910943E-013
 0.910943E-013
 0.910942E-013
 0.910942E-013
 0.910941E-013
 0.910941E-013
 0.910941E-013
 0.910940E-013
 0.910940E-013
 0.910940E-013
 0.910940E-013
 0.910939E-013
 0.910939E-013
 0.910939E-013
 0.910939E-013
 0.910939E-013
 0.910939E-013
 0.910939E-013
 0.910939E-013
 0.910938E-013
 0.910938E-013
 0.910938E-013
 0.910938E-013
 0.910938E-013
 0.910938E-013
 0.910938E-013
 0.910938E-013
 0.910938E-013
 0.910938E-013
 0.910941E-013
 0.910909E-013
 0.911204E-013
 0.909153E-013
 0.919147E-013
 0.920112E-013
 0.908939E-013
 0.911235E-013
 0.910905E-013
 0.910941E-013
 0.910938E-013
 0.910938E-013
 0.910938E-013
 0.910938E-013
 0.910938E-013
 0.910938E-013
 0.910938E-013
 0.910938E-013
 0.910938E-013
 0.910938E-013
 0.910938E-013
 0.910939E-013
 0.910939E-013
 0.910939E-013
 0.910939E-013
 0.910939E-013
 0.910939E-013
 0.910939E-013
 0.910940E-013
 0.910940E-013
 0.910940E-013
 0.910941E-013
 0.910941E-013
 0.910941E-013
 0.910942E-013
 0.910942E-013
 0.910943E-013
 0.910943E-013
 0.910944E-013
 0.910945E-013
 0.910945E-013
 0.910946E-013
 0.910947E-013
 0.910947E-013
 0.910948E-013
 0.910949E-013
 0.910950E-013
 0.910951E-013
 0.910952E-013
 0.910953E-013
 0.910954E-013
 0.910955E-013
 0.910956E-013
 0.910957E-013
 0.910957E-013
 0.910958E-013
 0.910959E-013
 0.910960E-013
 0.910961E-013
 0.910962E-013
 0.910962E-013
 0.910963E-013
 0.910964E-013
 0.910964E-013
 0.910964E-013
 0.910965E-013
 0.910965E-013
 0.910965E-013
 0.910965E-013
 0.910965E-013
 0.910965E-013
 0.910965E-013
 0.910965E-013
 0.910964E-013
 0.910964E-013
 0.910964E-013
 0.910963E-013
 0.910962E-013
 0.910962E-013
 0.910961E-013
 0.910960E-013
 0.910959E-013
 0.910958E-013
 0.910958E-013
 0.910957E-013
 0.910956E-013
 0.910955E-013
 0.910954E-013
 0.910953E-013
 0.910952E-013
 0.910951E-013
 0.910950E-013
 0.910949E-013
 0.910948E-013
 0.910948E-013
 0.910947E-013
 0.910946E-013
 0.910945E-013
 0.910945E-013
 0.910944E-013
 0.910943E-013
 0.910943E-013
 0.910942E-013
 0.910942E-013
 0.910941E-013
 0.910941E-013
 0.910941E-013
 0.910940E-013
 0.910940E-013
 0.910940E-013
 0.910940E-013
 0.910939E-013
 0.910939E-013
 0.910939E-013
 0.910939E-013
 0.910939E-013
 0.910939E-013
 0.910939E-013
 0.910939E-013
 0.910938E-013
 0.910938E-013
 0.910938E-013
 0.910938E-013
 0.910938E-013
 0.910938E-013
 0.910938E-013
 0.910938E-013
 0.910938E-013
 0.910941E-013
 0.910905E-013
 0.911236E-013
 0.908940E-013
 0.920110E-013
 0.921074E-013
 0.908727E-013
 0.911267E-013
 0.910901E-013
 0.910942E-013
 0.910938E-013
 0.910938E-013
 0.910938E-013
 0.910938E-013
 0.910938E-013
 0.910938E-013
 0.910938E-013
 0.910938E-013
 0.910938E-013
 0.910938E-013
 0.910939E-013
 0.910939E-013
 0.910939E-013
 0.910939E-013
 0.910939E-013
 0.910939E-013
 0.910940E-013
 0.910940E-013
 0.910940E-013
 0.910940E-013
 0.910941E-013
 0.910941E-013
 0.910942E-013
 0.910942E-013
 0.910943E-013
 0.910943E-013
 0.910944E-013
 0.910944E-013
 0.910945E-013
 0.910946E-013
 0.910947E-013
 0.910947E-013
 0.910948E-013
 0.910949E-013
 0.910950E-013
 0.910951E-013
 0.910952E-013
 0.910953E-013
 0.910954E-013
 0.910956E-013
 0.910957E-013
 0.910958E-013
 0.910959E-013
 0.910960E-013
 0.910961E-013
 0.910962E-013
 0.910963E-013
 0.910964E-013
 0.910965E-013
 0.910966E-013
 0.910967E-013
 0.910968E-013
 0.910968E-013
 0.910969E-013
 0.910969E-013
 0.910970E-013
 0.910970E-013
 0.910970E-013
 0.910970E-013
 0.910970E-013
 0.910970E-013
 0.910970E-013
 0.910970E-013
 0.910969E-013
 0.910969E-013
 0.910968E-013
 0.910968E-013
 0.910967E-013
 0.910966E-013
 0.910965E-013
 0.910964E-013
 0.910963E-013
 0.910962E-013
 0.910961E-013
 0.910960E-013
 0.910959E-013
 0.910958E-013
 0.910957E-013
 0.910956E-013
 0.910955E-013
 0.910953E-013
 0.910952E-013
 0.910951E-013
 0.910950E-013
 0.910949E-013
 0.910948E-013
 0.910948E-013
 0.910947E-013
 0.910946E-013
 0.910945E-013
 0.910945E-013
 0.910944E-013
 0.910943E-013
 0.910943E-013
 0.910942E-013
 0.910942E-013
 0.910941E-013
 0.910941E-013
 0.910941E-013
 0.910940E-013
 0.910940E-013
 0.910940E-013
 0.910939E-013
 0.910939E-013
 0.910939E-013
 0.910939E-013
 0.910939E-013
 0.910939E-013
 0.910939E-013
 0.910939E-013
 0.910938E-013
 0.910938E-013
 0.910938E-013
 0.910938E-013
 0.910938E-013
 0.910938E-013
 0.910938E-013
 0.910938E-013
 0.910942E-013
 0.910901E-013
 0.911267E-013
 0.908728E-013
 0.921071E-013
 0.922033E-013
 0.908516E-013
 0.911299E-013
 0.910898E-013
 0.910942E-013
 0.910938E-013
 0.910938E-013
 0.910938E-013
 0.910938E-013
 0.910938E-013
 0.910938E-013
 0.910938E-013
 0.910938E-013
 0.910938E-013
 0.910939E-013
 0.910939E-013
 0.910939E-013
 0.910939E-013
 0.910939E-013
 0.910939E-013
 0.910940E-013
 0.910940E-013
 0.910940E-013
 0.910940E-013
 0.910941E-013
 0.910941E-013
 0.910942E-013
 0.910942E-013
 0.910943E-013
 0.910943E-013
 0.910944E-013
 0.910945E-013
 0.910946E-013
 0.910946E-013
 0.910947E-013
 0.910948E-013
 0.910949E-013
 0.910950E-013
 0.910951E-013
 0.910953E-013
 0.910954E-013
 0.910955E-013
 0.910956E-013
 0.910957E-013
 0.910959E-013
 0.910960E-013
 0.910961E-013
 0.910963E-013
 0.910964E-013