# vtk DataFile Version 3.0
Solution data
ASCII
DATASET STRUCTURED_GRID
DIMENSIONS 128 128 1
POINTS 16384  double
      0.000004      0.000004      0.000000
      0.000012      0.000004      0.000000
      0.000020      0.000004      0.000000
      0.000027      0.000004      0.000000
      0.000035      0.000004      0.000000
      0.000043      0.000004      0.000000
      0.000051      0.000004      0.000000
      0.000059      0.000004      0.000000
      0.000066      0.000004      0.000000
      0.000074      0.000004      0.000000
      0.000082      0.000004      0.000000
      0.000090      0.000004      0.000000
      0.000098      0.000004      0.000000
      0.000105      0.000004      0.000000
      0.000113      0.000004      0.000000
      0.000121      0.000004      0.000000
      0.000129      0.000004      0.000000
      0.000137      0.000004      0.000000
      0.000145      0.000004      0.000000
      0.000152      0.000004      0.000000
      0.000160      0.000004      0.000000
      0.000168      0.000004      0.000000
      0.000176      0.000004      0.000000
      0.000184      0.000004      0.000000
      0.000191      0.000004      0.000000
      0.000199      0.000004      0.000000
      0.000207      0.000004      0.000000
      0.000215      0.000004      0.000000
      0.000223      0.000004      0.000000
      0.000230      0.000004      0.000000
      0.000238      0.000004      0.000000
      0.000246      0.000004      0.000000
      0.000254      0.000004      0.000000
      0.000262      0.000004      0.000000
      0.000270      0.000004      0.000000
      0.000277      0.000004      0.000000
      0.000285      0.000004      0.000000
      0.000293      0.000004      0.000000
      0.000301      0.000004      0.000000
      0.000309      0.000004      0.000000
      0.000316      0.000004      0.000000
      0.000324      0.000004      0.000000
      0.000332      0.000004      0.000000
      0.000340      0.000004      0.000000
      0.000348      0.000004      0.000000
      0.000355      0.000004      0.000000
      0.000363      0.000004      0.000000
      0.000371      0.000004      0.000000
      0.000379      0.000004      0.000000
      0.000387      0.000004      0.000000
      0.000395      0.000004      0.000000
      0.000402      0.000004      0.000000
      0.000410      0.000004      0.000000
      0.000418      0.000004      0.000000
      0.000426      0.000004      0.000000
      0.000434      0.000004      0.000000
      0.000441      0.000004      0.000000
      0.000449      0.000004      0.000000
      0.000457      0.000004      0.000000
      0.000465      0.000004      0.000000
      0.000473      0.000004      0.000000
      0.000480      0.000004      0.000000
      0.000488      0.000004      0.000000
      0.000496      0.000004      0.000000
      0.000504      0.000004      0.000000
      0.000512      0.000004      0.000000
      0.000520      0.000004      0.000000
      0.000527      0.000004      0.000000
      0.000535      0.000004      0.000000
      0.000543      0.000004      0.000000
      0.000551      0.000004      0.000000
      0.000559      0.000004      0.000000
      0.000566      0.000004      0.000000
      0.000574      0.000004      0.000000
      0.000582      0.000004      0.000000
      0.000590      0.000004      0.000000
      0.000598      0.000004      0.000000
      0.000605      0.000004      0.000000
      0.000613      0.000004      0.000000
      0.000621      0.000004      0.000000
      0.000629      0.000004      0.000000
      0.000637      0.000004      0.000000
      0.000645      0.000004      0.000000
      0.000652      0.000004      0.000000
      0.000660      0.000004      0.000000
      0.000668      0.000004      0.000000
      0.000676      0.000004      0.000000
      0.000684      0.000004      0.000000
      0.000691      0.000004      0.000000
      0.000699      0.000004      0.000000
      0.000707      0.000004      0.000000
      0.000715      0.000004      0.000000
      0.000723      0.000004      0.000000
      0.000730      0.000004      0.000000
      0.000738      0.000004      0.000000
      0.000746      0.000004      0.000000
      0.000754      0.000004      0.000000
      0.000762      0.000004      0.000000
      0.000770      0.000004      0.000000
      0.000777      0.000004      0.000000
      0.000785      0.000004      0.000000
      0.000793      0.000004      0.000000
      0.000801      0.000004      0.000000
      0.000809      0.000004      0.000000
      0.000816      0.000004      0.000000
      0.000824      0.000004      0.000000
      0.000832      0.000004      0.000000
      0.000840      0.000004      0.000000
      0.000848      0.000004      0.000000
      0.000855      0.000004      0.000000
      0.000863      0.000004      0.000000
      0.000871      0.000004      0.000000
      0.000879      0.000004      0.000000
      0.000887      0.000004      0.000000
      0.000895      0.000004      0.000000
      0.000902      0.000004      0.000000
      0.000910      0.000004      0.000000
      0.000918      0.000004      0.000000
      0.000926      0.000004      0.000000
      0.000934      0.000004      0.000000
      0.000941      0.000004      0.000000
      0.000949      0.000004      0.000000
      0.000957      0.000004      0.000000
      0.000965      0.000004      0.000000
      0.000973      0.000004      0.000000
      0.000980      0.000004      0.000000
      0.000988      0.000004      0.000000
      0.000996      0.000004      0.000000
      0.000004      0.000012      0.000000
      0.000012      0.000012      0.000000
      0.000020      0.000012      0.000000
      0.000027      0.000012      0.000000
      0.000035      0.000012      0.000000
      0.000043      0.000012      0.000000
      0.000051      0.000012      0.000000
      0.000059      0.000012      0.000000
      0.000066      0.000012      0.000000
      0.000074      0.000012      0.000000
      0.000082      0.000012      0.000000
      0.000090      0.000012      0.000000
      0.000098      0.000012      0.000000
      0.000105      0.000012      0.000000
      0.000113      0.000012      0.000000
      0.000121      0.000012      0.000000
      0.000129      0.000012      0.000000
      0.000137      0.000012      0.000000
      0.000145      0.000012      0.000000
      0.000152      0.000012      0.000000
      0.000160      0.000012      0.000000
      0.000168      0.000012      0.000000
      0.000176      0.000012      0.000000
      0.000184      0.000012      0.000000
      0.000191      0.000012      0.000000
      0.000199      0.000012      0.000000
      0.000207      0.000012      0.000000
      0.000215      0.000012      0.000000
      0.000223      0.000012      0.000000
      0.000230      0.000012      0.000000
      0.000238      0.000012      0.000000
      0.000246      0.000012      0.000000
      0.000254      0.000012      0.000000
      0.000262      0.000012      0.000000
      0.000270      0.000012      0.000000
      0.000277      0.000012      0.000000
      0.000285      0.000012      0.000000
      0.000293      0.000012      0.000000
      0.000301      0.000012      0.000000
      0.000309      0.000012      0.000000
      0.000316      0.000012      0.000000
      0.000324      0.000012      0.000000
      0.000332      0.000012      0.000000
      0.000340      0.000012      0.000000
      0.000348      0.000012      0.000000
      0.000355      0.000012      0.000000
      0.000363      0.000012      0.000000
      0.000371      0.000012      0.000000
      0.000379      0.000012      0.000000
      0.000387      0.000012      0.000000
      0.000395      0.000012      0.000000
      0.000402      0.000012      0.000000
      0.000410      0.000012      0.000000
      0.000418      0.000012      0.000000
      0.000426      0.000012      0.000000
      0.000434      0.000012      0.000000
      0.000441      0.000012      0.000000
      0.000449      0.000012      0.000000
      0.000457      0.000012      0.000000
      0.000465      0.000012      0.000000
      0.000473      0.000012      0.000000
      0.000480      0.000012      0.000000
      0.000488      0.000012      0.000000
      0.000496      0.000012      0.000000
      0.000504      0.000012      0.000000
      0.000512      0.000012      0.000000
      0.000520      0.000012      0.000000
      0.000527      0.000012      0.000000
      0.000535      0.000012      0.000000
      0.000543      0.000012      0.000000
      0.000551      0.000012      0.000000
      0.000559      0.000012      0.000000
      0.000566      0.000012      0.000000
      0.000574      0.000012      0.000000
      0.000582      0.000012      0.000000
      0.000590      0.000012      0.000000
      0.000598      0.000012      0.000000
      0.000605      0.000012      0.000000
      0.000613      0.000012      0.000000
      0.000621      0.000012      0.000000
      0.000629      0.000012      0.000000
      0.000637      0.000012      0.000000
      0.000645      0.000012      0.000000
      0.000652      0.000012      0.000000
      0.000660      0.000012      0.000000
      0.000668      0.000012      0.000000
      0.000676      0.000012      0.000000
      0.000684      0.000012      0.000000
      0.000691      0.000012      0.000000
      0.000699      0.000012      0.000000
      0.000707      0.000012      0.000000
      0.000715      0.000012      0.000000
      0.000723      0.000012      0.000000
      0.000730      0.000012      0.000000
      0.000738      0.000012      0.000000
      0.000746      0.000012      0.000000
      0.000754      0.000012      0.000000
      0.000762      0.000012      0.000000
      0.000770      0.000012      0.000000
      0.000777      0.000012      0.000000
      0.000785      0.000012      0.000000
[...]
POINT_DATA 16384
SCALARS rhoe double
LOOKUP_TABLE default
 0.915385E-013
 0.913076E-013
 0.915139E-013
 0.915892E-013
 0.916957E-013
 0.917958E-013
 0.918966E-013
 0.919971E-013
 0.920973E-013
 0.921972E-013
 0.922968E-013
 0.923962E-013
 0.924953E-013
 0.925940E-013
 0.926923E-013
 0.927904E-013
 0.928880E-013
 0.929852E-013
 0.930819E-013
 0.931782E-013
 0.932739E-013
 0.933691E-013
 0.934637E-013
 0.935576E-013
 0.936509E-013
 0.937434E-013
 0.938350E-013
 0.939258E-013
 0.940157E-013
 0.941045E-013
 0.941923E-013
 0.942789E-013
 0.943643E-013
 0.944484E-013
 0.945310E-013
 0.946122E-013
 0.946918E-013
 0.947698E-013
 0.948460E-013
 0.949203E-013
 0.949927E-013
 0.950630E-013
 0.951312E-013
 0.951971E-013
 0.952607E-013
 0.953218E-013
 0.953803E-013
 0.954363E-013
 0.954895E-013
 0.955398E-013
 0.955873E-013
 0.956318E-013
 0.956731E-013
 0.957113E-013
 0.957463E-013
 0.957780E-013
 0.958063E-013
 0.958313E-013
 0.958527E-013
 0.958706E-013
 0.958850E-013
 0.958959E-013
 0.959031E-013
 0.959067E-013
 0.959067E-013
 0.959031E-013
 0.958958E-013
 0.958850E-013
 0.958706E-013
 0.958527E-013
 0.958312E-013
 0.958063E-013
 0.957780E-013
 0.957463E-013
 0.957113E-013
 0.956731E-013
 0.956317E-013
 0.955872E-013
 0.955398E-013
 0.954894E-013
 0.954362E-013
 0.953803E-013
 0.953217E-013
 0.952606E-013
 0.951970E-013
 0.951311E-013
 0.950629E-013
 0.949926E-013
 0.949202E-013
 0.948459E-013
 0.947697E-013
 0.946918E-013
 0.946122E-013
 0.945310E-013
 0.944483E-013
 0.943642E-013
 0.942788E-013
 0.941922E-013
 0.941044E-013
 0.940156E-013
 0.939257E-013
 0.938349E-013
 0.937433E-013
 0.936508E-013
 0.935576E-013
 0.934636E-013
 0.933690E-013
 0.932739E-013
 0.931781E-013
 0.930818E-013
 0.929851E-013
 0.928879E-013
 0.927903E-013
 0.926923E-013
 0.925939E-013
 0.924952E-013
 0.923961E-013
 0.922968E-013
 0.921971E-013
 0.920972E-013
 0.919970E-013
 0.918966E-013
 0.917957E-013
 0.916957E-013
 0.915892E-013
 0.915139E-013
 0.913076E-013
 0.915385E-013
 0.913076E-013
 0.908689E-013
 0.909688E-013
 0.908871E-013
 0.908525E-013
 0.908083E-013
 0.907659E-013
 0.907234E-013
 0.906810E-013
 0.906387E-013
 0.905966E-013
 0.905545E-013
 0.905127E-013
 0.904710E-013
 0.904294E-013
 0.903880E-013
 0.903468E-013
 0.903057E-013
 0.902649E-013
 0.902242E-013
 0.901838E-013
 0.901437E-013
 0.901038E-013
 0.900642E-013
 0.900248E-013
 0.899859E-013
 0.899472E-013
 0.899089E-013
 0.898711E-013
 0.898336E-013
 0.897967E-013
 0.897602E-013
 0.897242E-013
 0.896888E-013
 0.896540E-013
 0.896198E-013
 0.895863E-013
 0.895535E-013
 0.895214E-013
 0.894902E-013
 0.894597E-013
 0.894301E-013
 0.894015E-013
 0.893738E-013
 0.893470E-013
 0.893213E-013
 0.892967E-013
 0.892732E-013
 0.892508E-013
 0.892297E-013
 0.892097E-013
 0.891910E-013
 0.891737E-013
 0.891576E-013
 0.891429E-013
 0.891296E-013
 0.891177E-013
 0.891072E-013
 0.890982E-013
 0.890907E-013
 0.890846E-013
 0.890801E-013
 0.890771E-013
 0.890755E-013
 0.890755E-013
 0.890771E-013
 0.890801E-013
 0.890847E-013
 0.890907E-013
 0.890982E-013
 0.891073E-013
 0.891177E-013
 0.891296E-013
 0.891429E-013
 0.891576E-013
 0.891737E-013
 0.891911E-013
 0.892098E-013
 0.892297E-013
 0.892509E-013
 0.892733E-013
 0.892968E-013
 0.893214E-013
 0.893471E-013
 0.893738E-013
 0.894016E-013
 0.894302E-013
 0.894598E-013
 0.894903E-013
 0.895215E-013
 0.895536E-013
 0.895864E-013
 0.896199E-013
 0.896541E-013
 0.896889E-013
 0.897243E-013
 0.897603E-013
 0.897968E-013
 0.898337E-013
 0.898712E-013
 0.899090E-013
 0.899473E-013
 0.899860E-013
 0.900249E-013
 0.900643E-013
 0.901039E-013
 0.901438E-013
 0.901839E-013
 0.902243E-013
 0.902650E-013
 0.903058E-013
 0.903469E-013
 0.903881E-013
 0.904295E-013
 0.904710E-013
 0.905128E-013
 0.905546E-013
 0.905966E-013
 0.906388E-013
 0.906810E-013
 0.907234E-013
 0.907659E-013
 0.908084E-013
 0.908526E-013
 0.908871E-013
 0.909688E-013
 0.908690E-013
 0.913076E-013
 0.915139E-013
 0.909688E-013
 0.911839E-013
 0.911416E-013
 0.911664E-013
 0.911771E-013
 0.911901E-013
 0.912028E-013
 0.912155E-013
 0.912282E-013
 0.912408E-013
 0.912533E-013
 0.912659E-013
 0.912784E-013
 0.912908E-013
 0.913032E-013
 0.913155E-013
 0.913278E-013
 0.913400E-013
 0.913521E-013
 0.913642E-013
 0.913762E-013
 0.913882E-013
 0.914000E-013
 0.914118E-013
 0.914234E-013
 0.914350E-013
 0.914464E-013
 0.914577E-013
 0.914689E-013
 0.914800E-013
 0.914909E-013
 0.915016E-013
 0.915122E-013
 0.915226E-013
 0.915328E-013
 0.915428E-013
 0.915526E-013
 0.915622E-013
 0.915715E-013
 0.915806E-013
 0.915895E-013
 0.915980E-013
 0.916063E-013
 0.916143E-013
 0.916220E-013
 0.916293E-013
 0.916364E-013
 0.916430E-013
 0.916494E-013
 0.916553E-013
 0.916609E-013
 0.916661E-013
 0.916709E-013
 0.916753E-013
 0.916793E-013
 0.916828E-013
 0.916860E-013
 0.916886E-013
 0.916909E-013
 0.916927E-013
 0.916941E-013
 0.916950E-013
 0.916954E-013
 0.916954E-013
 0.916950E-013
 0.916941E-013
 0.916927E-013
 0.916909E-013
 0.916886E-013
 0.916859E-013
 0.916828E-013
 0.916793E-013
 0.916753E-013
 0.916709E-013
 0.916661E-013
 0.916609E-013
 0.916553E-013
 0.916493E-013
 0.916430E-013
 0.916363E-013
 0.916293E-013
 0.916220E-013
 0.916143E-013
 0.916063E-013
 0.915980E-013
 0.915894E-013
 0.915806E-013
 0.915715E-013
 0.915622E-013
 0.915526E-013
 0.915428E-013
 0.915328E-013
 0.915225E-013
 0.915121E-013
 0.915016E-013
 0.914908E-013
 0.914799E-013
 0.914689E-013
 0.914577E-013
 0.914464E-013
 0.914349E-013
 0.914234E-013
 0.914117E-013
 0.914000E-013
 0.913881E-013
 0.913762E-013
 0.913642E-013
 0.913521E-013
 0.913400E-013
 0.913277E-013
 0.913155E-013
 0.913031E-013
 0.912908E-013
 0.912783E-013
 0.912659E-013
 0.912533E-013
 0.912408E-013
 0.912281E-013
 0.912155E-013
 0.912028E-013
 0.911901E-013
 0.911770E-013
 0.911664E-013
 0.911416E-013
 0.911839E-013
 0.909688E-013
 0.915139E-013
 0.915892E-013
 0.908871E-013
 0.911416E-013
 0.910677E-013
 0.910802E-013
 0.910745E-013
 0.910720E-013
 0.910690E-013
 0.910661E-013
 0.910632E-013
 0.910603E-013
 0.910574E-013
 0.910545E-013
 0.910517E-013
 0.910488E-013
 0.910460E-013
 0.910431E-013
 0.910403E-013
 0.910375E-013
 0.910347E-013
 0.910319E-013
 0.910292E-013
 0.910265E-013
 0.910237E-013
 0.910210E-013
 0.910184E-013
 0.910157E-013
 0.910131E-013
 0.910105E-013
 0.910080E-013
 0.910054E-013
 0.910029E-013
 0.910005E-013
 0.909981E-013
 0.909957E-013
 0.909934E-013
 0.909911E-013
 0.909888E-013
 0.909867E-013
 0.909845E-013
 0.909825E-013
 0.909804E-013
 0.909785E-013
 0.909766E-013
 0.909748E-013
 0.909730E-013
 0.909714E-013
 0.909698E-013
 0.909683E-013
 0.909668E-013
 0.909655E-013
 0.909642E-013
 0.909630E-013
 0.909619E-013
 0.909609E-013
 0.909600E-013
 0.909592E-013
 0.909585E-013
 0.909579E-013
 0.909574E-013
 0.909570E-013
 0.909567E-013
 0.909565E-013
 0.909564E-013
 0.909564E-013
 0.909565E-013
 0.909567E-013
 0.909570E-013
 0.909574E-013
 0.909579E-013
 0.909585E-013
 0.909592E-013
 0.909600E-013
 0.909609E-013
 0.909619E-013
 0.909630E-013
 0.909642E-013
 0.909655E-013
 0.909668E-013
 0.909683E-013
 0.909698E-013
 0.909714E-013
 0.909731E-013
 0.909748E-013
 0.909766E-013
 0.909785E-013
 0.909805E-013
 0.909825E-013
 0.909845E-013
 0.909867E-013
 0.909889E-013
 0.909911E-013
 0.909934E-013
 0.909957E-013
 0.909981E-013
 0.910005E-013
 0.910030E-013
 0.910054E-013
 0.910080E-013
 0.910105E-013
 0.910131E-013
 0.910157E-013
 0.910184E-013
 0.910211E-013
 0.910238E-013
 0.910265E-013
 0.910292E-013
 0.910320E-013
 0.910347E-013
 0.910375E-013
 0.910403E-013
 0.910431E-013
 0.910460E-013
 0.910488E-013
 0.910517E-013
 0.910545E-013
 0.910574E-013
 0.910603E-013
 0.910632E-013
 0.910661E-013
 0.910690E-013
 0.910720E-013
 0.910745E-013
 0.910802E-013
 0.910677E-013
 0.911416E-013
 0.908871E-013
 0.915892E-013
 0.916957E-013
 0.908525E-013
 0.911664E-013
 0.910802E-013
 0.910997E-013
 0.910969E-013
 0.910979E-013
 0.910984E-013
 0.910990E-013
 0.910995E-013
 0.911000E-013
 0.911006E-013
 0.911011E-013
 0.911017E-013
 0.911022E-013
 0.911027E-013
 0.911032E-013
 0.911038E-013
 0.911043E-013
 0.911048E-013
 0.911053E-013
 0.911058E-013
 0.911064E-013
 0.911069E-013
 0.911074E-013
 0.911079E-013
 0.911084E-013
 0.911088E-013
 0.911093E-013
 0.911098E-013
 0.911103E-013
 0.911108E-013
 0.911112E-013
 0.911117E-013
 0.911121E-013
 0.911126E-013
 0.911130E-013
 0.911134E-013
 0.911138E-013
 0.911142E-013
 0.911146E-013
 0.911150E-013
 0.911154E-013
 0.911157E-013
 0.911161E-013
 0.911164E-013
 0.911167E-013
 0.911171E-013
 0.911173E-013
 0.911176E-013
 0.911179E-013
 0.911181E-013
 0.911184E-013
 0.911186E-013
 0.911188E-013
 0.911189E-013
 0.911191E-013
 0.911192E-013
 0.911193E-013
 0.911194E-013
 0.911195E-013
 0.911196E-013
 0.911196E-013
 0.911196E-013
 0.911196E-013
 0.911196E-013
 0.911196E-013
 0.911195E-013
 0.911194E-013
 0.911193E-013
 0.911192E-013
 0.911191E-013
 0.911189E-013
 0.911188E-013
 0.911186E-013
 0.911184E-013
 0.911181E-013
 0.911179E-013
 0.911176E-013
 0.911173E-013
 0.911171E-013
 0.911167E-013
 0.911164E-013
 0.911161E-013
 0.911157E-013
 0.911154E-013
 0.911150E-013
 0.911146E-013
 0.911142E-013
 0.911138E-013
 0.911134E-013
 0.911130E-013
 0.911126E-013
 0.911121E-013
 0.911117E-013
 0.911112E-013
 0.911108E-013
 0.911103E-013
 0.911098E-013
 0.911093E-013
 0.911089E-013
 0.911084E-013
 0.911079E-013
 0.911074E-013
 0.911069E-013
 0.911064E-013
 0.911058E-013
 0.911053E-013
 0.911048E-013
 0.911043E-013
 0.911038E-013
 0.911032E-013
 0.911027E-013
 0.911022E-013
 0.911017E-013
 0.911011E-013
 0.911006E-013
 0.911001E-013
 0.910995E-013
 0.910990E-013
 0.910984E-013
 0.910979E-013
 0.910969E-013
 0.910997E-013
 0.910802E-013
 0.911664E-013
 0.908526E-013
 0.916957E-013
 0.917958E-013
 0.908083E-013
 0.911771E-013
 0.910745E-013
 0.910969E-013
 0.910927E-013
 0.910933E-013
 0.910931E-013
 0.910930E-013
 0.910929E-013
 0.910929E-013
 0.910928E-013
 0.910927E-013
 0.910926E-013
 0.910925E-013
 0.910924E-013
 0.910924E-013
 0.910923E-013
 0.910922E-013
 0.910921E-013
 0.910920E-013
 0.910920E-013
 0.910919E-013
 0.910918E-013
 0.910917E-013
 0.910916E-013
 0.910916E-013
 0.910915E-013
 0.910914E-013
 0.910914E-013
 0.910913E-013
 0.910912E-013
 0.910912E-013
 0.910911E-013
 0.910910E-013
 0.910910E-013
 0.910909E-013
 0.910909E-013
 0.910908E-013
 0.910907E-013
 0.910907E-013
 0.910906E-013
 0.910906E-013
 0.910906E-013
 0.910905E-013
 0.910905E-013
 0.910904E-013
 0.910904E-013
 0.910904E-013
 0.910903E-013
 0.910903E-013
 0.910903E-013
 0.910902E-013
 0.910902E-013
 0.910902E-013
 0.910902E-013
 0.910902E-013
 0.910902E-013
 0.910901E-013
 0.910901E-013
 0.910901E-013
 0.910901E-013
 0.910901E-013
 0.910901E-013
 0.910901E-013
 0.910901E-013
 0.910901E-013
 0.910901E-013
 0.910901E-013
 0.910901E-013
 0.910902E-013
 0.910902E-013
 0.910902E-013
 0.910902E-013
 0.910902E-013
 0.910902E-013
 0.910903E-013
 0.910903E-013
 0.910903E-013
 0.910904E-013
 0.910904E-013
 0.910904E-013
 0.910905E-013
 0.910905E-013
 0.910906E-013
 0.910906E-013
 0.910906E-013
 0.910907E-013
 0.910908E-013
 0.910908E-013
 0.910909E-013
 0.910909E-013
 0.910910E-013
 0.910910E-013
 0.910911E-013
 0.910912E-013
 0.910912E-013
 0.910913E-013
 0.910914E-013
 0.910914E-013
 0.910915E-013
 0.910916E-013
 0.910917E-013
 0.910917E-013
 0.910918E-013
 0.910919E-013
 0.910920E-013
 0.910920E-013
 0.910921E-013
 0.910922E-013
 0.910923E-013
 0.910924E-013
 0.910924E-013
 0.910925E-013
 0.910926E-013
 0.910927E-013
 0.910928E-013
 0.910929E-013
 0.910929E-013
 0.910930E-013
 0.910931E-013
 0.910933E-013
 0.910927E-013
 0.910969E-013
 0.910745E-013
 0.911770E-013
 0.908084E-013
 0.917957E-013
 0.918966E-013
 0.907659E-013
 0.911901E-013
 0.910720E-013
 0.910979E-013
 0.910933E-013
 0.910940E-013
 0.910939E-013
 0.910939E-013
 0.910939E-013
 0.910940E-013
 0.910940E-013
 0.910940E-013
 0.910940E-013
 0.910940E-013
 0.910940E-013
 0.910940E-013
 0.910940E-013
 0.910940E-013
 0.910941E-013
 0.910941E-013
 0.910941E-013
 0.910941E-013
 0.910941E-013
 0.910941E-013
 0.910941E-013
 0.910942E-013
 0.910942E-013
 0.910942E-013
 0.910942E-013
 0.910942E-013
 0.910942E-013
 0.910942E-013
 0.910943E-013
 0.910943E-013
 0.910943E-013
 0.910943E-013
 0.910943E-013
 0.910944E-013
 0.910944E-013
 0.910944E-013
 0.910944E-013
 0.910944E-013
 0.910944E-013
 0.910945E-013
 0.910945E-013
 0.910945E-013
 0.910945E-013
 0.910945E-013
 0.910946E-013
 0.910946E-013
 0.910946E-013
 0.910946E-013
 0.910946E-013
 0.910946E-013
 0.910947E-013
 0.910947E-013
 0.910947E-013
 0.910947E-013
 0.910947E-013
 0.910947E-013
 0.910947E-013
 0.910947E-013
 0.910947E-013
 0.910947E-013
 0.910947E-013
 0.910947E-013
 0.910947E-013
 0.910947E-013
 0.910947E-013
 0.910947E-013
 0.910947E-013
 0.910947E-013
 0.910946E-013
 0.910946E-013
 0.910946E-013
 0.910946E-013
 0.910946E-013
 0.910946E-013
 0.910945E-013
 0.910945E-013
 0.910945E-013
 0.910945E-013
 0.910945E-013
 0.910945E-013
 0.910944E-013
 0.910944E-013
 0.910944E-013
 0.910944E-013
 0.910944E-013
 0.910943E-013
 0.910943E-013
 0.910943E-013
 0.910943E-013
 0.910943E-013
 0.910943E-013
 0.910942E-013
 0.910942E-013
 0.910942E-013
 0.910942E-013
 0.910942E-013
 0.910942E-013
 0.910941E-013
 0.910941E-013
 0.910941E-013
 0.910941E-013
 0.910941E-013
 0.910941E-013
 0.910941E-013
 0.910941E-013
 0.910940E-013
 0.910940E-013
 0.910940E-013
 0.910940E-013
 0.910940E-013
 0.910940E-013
 0.910940E-013
 0.910940E-013
 0.910939E-013
 0.910939E-013
 0.910939E-013
 0.910940E-013
 0.910933E-013
 0.910979E-013
 0.910720E-013
 0.911901E-013
 0.907660E-013
 0.918966E-013
 0.919971E-013
 0.907234E-013
 0.912028E-013
 0.910690E-013
 0.910984E-013
 0.910931E-013
 0.910939E-013
 0.910938E-013
 0.910938E-013
 0.910938E-013
 0.910938E-013
 0.910938E-013
 0.910938E-013
 0.910938E-013
 0.910938E-013
 0.910938E-013
 0.910938E-013
 0.910938E-013
 0.910938E-013
 0.910938E-013
 0.910938E-013
 0.910938E-013
 0.910938E-013
 0.910938E-013
 0.910938E-013
 0.910938E-013
 0.910938E-013
 0.910938E-013
 0.910938E-013
 0.910938E-013
 0.910938E-013
 0.910938E-013
 0.910939E-013
 0.910939E-013
 0.910939E-013
 0.910939E-013
 0.910939E-013
 0.910939E-013
 0.910939E-013
 0.910939E-013
 0.910939E-013
 0.910939E-013
 0.910940E-013
 0.910940E-013
 0.910940E-013
 0.910940E-013
 0.910940E-013
 0.910940E-013
 0.910940E-013
 0.910941E-013
 0.910941E-013
 0.910941E-013
 0.910941E-013
 0.910941E-013
 0.910941E-013
 0.910941E-013
 0.910941E-013
 0.910941E-013
 0.910941E-013
 0.910942E-013
 0.910942E-013
 0.910942E-013
 0.910942E-013
 0.910942E-013
 0.910942E-013
 0.910942E-013
 0.910942E-013
 0.910942E-013
 0.910942E-013
 0.910941E-013
 0.910941E-013
 0.910941E-013
 0.910941E-013
 0.910941E-013
 0.910941E-013
 0.910941E-013
 0.910941E-013
 0.910941E-013
 0.910941E-013
 0.910940E-013
 0.910940E-013
 0.910940E-013
 0.910940E-013
 0.910940E-013
 0.910940E-013
 0.910940E-013
 0.910939E-013
 0.910939E-013
 0.910939E-013
 0.910939E-013
 0.910939E-013
 0.910939E-013
 0.910939E-013
 0.910939E-013
 0.910939E-013
 0.910939E-013
 0.910938E-013
 0.910938E-013
 0.910938E-013
 0.910938E-013
 0.910938E-013
 0.910938E-013
 0.910938E-013
 0.910938E-013
 0.910938E-013
 0.910938E-013
 0.910938E-013
 0.910938E-013
 0.910938E-013
 0.910938E-013
 0.910938E-013
 0.910938E-013
 0.910938E-013
 0.910938E-013
 0.910938E-013
 0.910938E-013
 0.910938E-013
 0.910938E-013
 0.910938E-013
 0.910938E-013
 0.910938E-013
 0.910939E-013
 0.910931E-013
 0.910984E-013
 0.910690E-013
 0.912028E-013
 0.907234E-013
 0.919970E-013
 0.920973E-013
 0.906810E-013
 0.912155E-013
 0.910661E-013
 0.910990E-013
 0.910930E-013
 0.910939E-013
 0.910938E-013
 0.910938E-013
 0.910938E-013
 0.910938E-013
 0.910938E-013
 0.910938E-013
 0.910938E-013
 0.910938E-013
 0.910938E-013
 0.910938E-013
 0.910938E-013
 0.910938E-013
 0.910938E-013
 0.910938E-013
 0.910938E-013
 0.910938E-013
 0.910938E-013
 0.910939E-013
 0.910939E-013
 0.910939E-013
 0.910939E-013
 0.910939E-013
 0.910939E-013
 0.910939E-013
 0.910939E-013
 0.910939E-013
 0.910939E-013
 0.910939E-013
 0.910939E-013
 0.910940E-013
 0.910940E-013
 0.910940E-013
 0.910940E-013
 0.910940E-013
 0.910940E-013
 0.910941E-013
 0.910941E-013
 0.910941E-013
 0.910941E-013
 0.910941E-013
 0.910941E-013
 0.910942E-013
 0.910942E-013
 0.910942E-013
 0.910942E-013
 0.910942E-013
 0.910942E-013
 0.910942E-013
 0.910943E-013
 0.910943E-013
 0.910943E-013
 0.910943E-013
 0.910943E-013
 0.910943E-013
 0.910943E-013
 0.910943E-013
 0.910943E-013
 0.910943E-013
 0.910943E-013
 0.910943E-013
 0.910943E-013
 0.910943E-013
 0.910943E-013
 0.910943E-013
 0.910943E-013
 0.910943E-013
 0.910943E-013
 0.910942E-013
 0.910942E-013
 0.910942E-013
 0.910942E-013
 0.910942E-013
 0.910942E-013
 0.910941E-013
 0.910941E-013
 0.910941E-013
 0.910941E-013
 0.910941E-013
 0.910941E-013
 0.910940E-013
 0.910940E-013
 0.910940E-013
 0.910940E-013
 0.910940E-013
 0.910940E-013
 0.910940E-013
 0.910939E-013
 0.910939E-013
 0.910939E-013
 0.910939E-013
 0.910939E-013
 0.910939E-013
 0.910939E-013
 0.910939E-013
 0.910939E-013
 0.910939E-013
 0.910939E-013
 0.910939E-013
 0.910939E-013
 0.910938E-013
 0.910938E-013
 0.910938E-013
 0.910938E-013
 0.910938E-013
 0.910938E-013
 0.910938E-013
 0.910938E-013
 0.910938E-013
 0.910938E-013
 0.910938E-013
 0.910938E-013
 0.910938E-013
 0.910938E-013
 0.910938E-013
 0.910939E-013
 0.910930E-013
 0.910990E-013
 0.910661E-013
 0.912155E-013
 0.906810E-013
 0.920972E-013
 0.921972E-013
 0.906387E-013
 0.912282E-013
 0.910632E-013
 0.910995E-013
 0.910929E-013
 0.910939E-013
 0.910938E-013
 0.910938E-013
 0.910938E-013
 0.910938E-013
 0.910938E-013
 0.910938E-013
 0.910938E-013
 0.910938E-013
 0.910938E-013
 0.910938E-013
 0.910938E-013
 0.910938E-013
 0.910938E-013
 0.910938E-013
 0.910938E-013
 0.910938E-013
 0.910938E-013
 0.910939E-013
 0.910939E-013
 0.910939E-013
 0.910939E-013
 0.910939E-013
 0.910939E-013
 0.910939E-013
 0.910939E-013
 0.910939E-013
 0.910939E-013
 0.910940E-013
 0.910940E-013
 0.910940E-013
 0.910940E-013
 0.910940E-013
 0.910940E-013
 0.910941E-013
 0.910941E-013
 0.910941E-013
 0.910941E-013
 0.910941E-013
 0.910941E-013
 0.910942E-013
 0.910942E-013
 0.910942E-013
 0.910942E-013
 0.910943E-013
 0.910943E-013
 0.910943E-013
 0.910943E-013
 0.910943E-013
 0.910943E-013
 0.910944E-013
 0.910944E-013
 0.910944E-013
 0.910944E-013
 0.910944E-013
 0.910944E-013
 0.910944E-013
 0.910944E-013
 0.910944E-013
 0.910944E-013
 0.910944E-013
 0.910944E-013
 0.910944E-013
 0.910944E-013
 0.910944E-013
 0.910944E-013
 0.910943E-013
 0.910943E-013
 0.910943E-013
 0.910943E-013
 0.910943E-013
 0.910943E-013
 0.910942E-013
 0.910942E-013
 0.910942E-013
 0.910942E-013
 0.910942E-013
 0.910941E-013
 0.910941E-013
 0.910941E-013
 0.910941E-013
 0.910941E-013
 0.910940E-013
 0.910940E-013
 0.910940E-013
 0.910940E-013
 0.910940E-013
 0.910940E-013
 0.910939E-013
 0.910939E-013
 0.910939E-013
 0.910939E-013
 0.910939E-013
 0.910939E-013
 0.910939E-013
 0.910939E-013
 0.910939E-013
 0.910939E-013
 0.910939E-013
 0.910939E-013
 0.910938E-013
 0.910938E-013
 0.910938E-013
 0.910938E-013
 0.910938E-013
 0.910938E-013
 0.910938E-013
 0.910938E-013
 0.910938E-013
 0.910938E-013
 0.910938E-013
 0.910938E-013
 0.910938E-013
 0.910938E-013
 0.910938E-013
 0.910940E-013
 0.910929E-013
 0.910995E-013
 0.910632E-013
 0.912281E-013
 0.906388E-013
 0.921971E-013
 0.922968E-013
 0.905966E-013
 0.912408E-013
 0.910603E-013
 0.911000E-013
 0.910929E-013
 0.910940E-013
 0.910938E-013
 0.910938E-013
 0.910938E-013
 0.910938E-013
 0.910938E-013
 0.910938E-013
 0.910938E-013
 0.910938E-013
 0.910938E-013
 0.910938E-013
 0.910938E-013
 0.910938E-013
 0.910938E-013
 0.910938E-013
 0.910938E-013
 0.910939E-013
 0.910939E-013
 0.910939E-013
 0.910939E-013
 0.910939E-013
 0.910939E-013
 0.910939E-013
 0.910939E-013
 0.910939E-013
 0.910939E-013
 0.910939E-013
 0.910940E-013
 0.910940E-013
 0.910940E-013
 0.910940E-013
 0.910940E-013
 0.910941E-013
 0.910941E-013
 0.910941E-013
 0.910941E-013
 0.910941E-013
 0.910942E-013
 0.910942E-013
 0.910942E-013
 0.910942E-013
 0.910943E-013
 0.910943E-013