# vtk DataFile Version 3.0
Solution data
ASCII
DATASET STRUCTURED_GRID
DIMENSIONS 128 128 1
POINTS 16384  double
      0.000004      0.000004      0.000000
      0.000012      0.000004      0.000000
      0.000020      0.000004      0.000000
      0.000027      0.000004      0.000000
      0.000035      0.000004      0.000000
      0.000043      0.000004      0.000000
      0.000051      0.000004      0.000000
      0.000059      0.000004      0.000000
      0.000066      0.000004      0.000000
      0.000074      0.000004      0.000000
      0.000082      0.000004      0.000000
      0.000090      0.000004      0.000000
      0.000098      0.000004      0.000000
      0.000105      0.000004      0.000000
      0.000113      0.000004      0.000000
      0.000121      0.000004      0.000000
      0.000129      0.000004      0.000000
      0.000137      0.000004      0.000000
      0.000145      0.000004      0.000000
      0.000152      0.000004      0.000000
      0.000160      0.000004      0.000000
      0.000168      0.000004      0.000000
      0.000176      0.000004      0.000000
      0.000184      0.000004      0.000000
      0.000191      0.000004      0.000000
      0.000199      0.000004      0.000000
      0.000207      0.000004      0.000000
      0.000215      0.000004      0.000000
      0.000223      0.000004      0.000000
      0.000230      0.000004      0.000000
      0.000238      0.000004      0.000000
      0.000246      0.000004      0.000000
      0.000254      0.000004      0.000000
      0.000262      0.000004      0.000000
      0.000270      0.000004      0.000000
      0.000277      0.000004      0.000000
      0.000285      0.000004      0.000000
      0.000293      0.000004      0.000000
      0.000301      0.000004      0.000000
      0.000309      0.000004      0.000000
      0.000316      0.000004      0.000000
      0.000324      0.000004      0.000000
      0.000332      0.000004      0.000000
      0.000340      0.000004      0.000000
      0.000348      0.000004      0.000000
      0.000355      0.000004      0.000000
      0.000363      0.000004      0.000000
      0.000371      0.000004      0.000000
      0.000379      0.000004      0.000000
      0.000387      0.000004      0.000000
      0.000395      0.000004      0.000000
      0.000402      0.000004      0.000000
      0.000410      0.000004      0.000000
      0.000418      0.000004      0.000000
      0.000426      0.000004      0.000000
      0.000434      0.000004      0.000000
      0.000441      0.000004      0.000000
      0.000449      0.000004      0.000000
      0.000457      0.000004      0.000000
      0.000465      0.000004      0.000000
      0.000473      0.000004      0.000000
      0.000480      0.000004      0.000000
      0.000488      0.000004      0.000000
      0.000496      0.000004      0.000000
      0.000504      0.000004      0.000000
      0.000512      0.000004      0.000000
      0.000520      0.000004      0.000000
      0.000527      0.000004      0.000000
      0.000535      0.000004      0.000000
      0.000543      0.000004      0.000000
      0.000551      0.000004      0.000000
      0.000559      0.000004      0.000000
      0.000566      0.000004      0.000000
      0.000574      0.000004      0.000000
      0.000582      0.000004      0.000000
      0.000590      0.000004      0.000000
      0.000598      0.000004      0.000000
      0.000605      0.000004      0.000000
      0.000613      0.000004      0.000000
      0.000621      0.000004      0.000000
      0.000629      0.000004      0.000000
      0.000637      0.000004      0.000000
      0.000645      0.000004      0.000000
      0.000652      0.000004      0.000000
      0.000660      0.000004      0.000000
      0.000668      0.000004      0.000000
      0.000676      0.000004      0.000000
      0.000684      0.000004      0.000000
      0.000691      0.000004      0.000000
      0.000699      0.000004      0.000000
      0.000707      0.000004      0.000000
      0.000715      0.000004      0.000000
      0.000723      0.000004      0.000000
      0.000730      0.000004      0.000000
      0.000738      0.000004      0.000000
      0.000746      0.000004      0.000000
      0.000754      0.000004      0.000000
      0.000762      0.000004      0.000000
      0.000770      0.000004      0.000000
      0.000777      0.000004      0.000000
      0.000785      0.000004      0.000000
      0.000793      0.000004      0.000000
      0.000801      0.000004      0.000000
      0.000809      0.000004      0.000000
      0.000816      0.000004      0.000000
      0.000824      0.000004      0.000000
      0.000832      0.000004      0.000000
      0.000840      0.000004      0.000000
      0.000848      0.000004      0.000000
      0.000855      0.000004      0.000000
      0.000863      0.000004      0.000000
      0.000871      0.000004      0.000000
      0.000879      0.000004      0.000000
      0.000887      0.000004      0.000000
      0.000895      0.000004      0.000000
      0.000902      0.000004      0.000000
      0.000910      0.000004      0.000000
      0.000918      0.000004      0.000000
      0.000926      0.000004      0.000000
      0.000934      0.000004      0.000000
      0.000941      0.000004      0.000000
      0.000949      0.000004      0.000000
      0.000957      0.000004      0.000000
      0.000965      0.000004      0.000000
      0.000973      0.000004      0.000000
      0.000980      0.000004      0.000000
      0.000988      0.000004      0.000000
      0.000996      0.000004      0.000000
      0.000004      0.000012      0.000000
      0.000012      0.000012      0.000000
      0.000020      0.000012      0.000000
      0.000027      0.000012      0.000000
      0.000035      0.000012      0.000000
      0.000043      0.000012      0.000000
      0.000051      0.000012      0.000000
      0.000059      0.000012      0.000000
      0.000066      0.000012      0.000000
      0.000074      0.000012      0.000000
      0.000082      0.000012      0.000000
      0.000090      0.000012      0.000000
      0.000098      0.000012      0.000000
      0.000105      0.000012      0.000000
      0.000113      0.000012      0.000000
      0.000121      0.000012      0.000000
      0.000129      0.000012      0.000000
      0.000137      0.000012      0.000000
      0.000145      0.000012      0.000000
      0.000152      0.000012      0.000000
      0.000160      0.000012      0.000000
      0.000168      0.000012      0.000000
      0.000176      0.000012      0.000000
      0.000184      0.000012      0.000000
      0.000191      0.000012      0.000000
      0.000199      0.000012      0.000000
      0.000207      0.000012      0.000000
      0.000215      0.000012      0.000000
      0.000223      0.000012      0.000000
      0.000230      0.000012      0.000000
      0.000238      0.000012      0.000000
      0.000246      0.000012      0.000000
      0.000254      0.000012      0.000000
      0.000262      0.000012      0.000000
      0.000270      0.000012      0.000000
      0.000277      0.000012      0.000000
      0.000285      0.000012      0.000000
      0.000293      0.000012      0.000000
      0.000301      0.000012      0.000000
      0.000309      0.000012      0.000000
      0.000316      0.000012      0.000000
      0.000324      0.000012      0.000000
      0.000332      0.000012      0.000000
      0.000340      0.000012      0.000000
      0.000348      0.000012      0.000000
      0.000355      0.000012      0.000000
      0.000363      0.000012      0.000000
      0.000371      0.000012      0.000000
      0.000379      0.000012      0.000000
      0.000387      0.000012      0.000000
      0.000395      0.000012      0.000000
      0.000402      0.000012      0.000000
      0.000410      0.000012      0.000000
      0.000418      0.000012      0.000000
      0.000426      0.000012      0.000000
      0.000434      0.000012      0.000000
      0.000441      0.000012      0.000000
      0.000449      0.000012      0.000000
      0.000457      0.000012      0.000000
      0.000465      0.000012      0.000000
      0.000473      0.000012      0.000000
      0.000480      0.000012      0.000000
      0.000488      0.000012      0.000000
      0.000496      0.000012      0.000000
      0.000504      0.000012      0.000000
      0.000512      0.000012      0.000000
      0.000520      0.000012      0.000000
      0.000527      0.000012      0.000000
      0.000535      0.000012      0.000000
      0.000543      0.000012      0.000000
      0.000551      0.000012      0.000000
      0.000559      0.000012      0.000000
      0.000566      0.000012      0.000000
      0.000574      0.000012      0.000000
      0.000582      0.000012      0.000000
      0.000590      0.000012      0.000000
      0.000598      0.000012      0.000000
      0.000605      0.000012      0.000000
      0.000613      0.000012      0.000000
      0.000621      0.000012      0.000000
      0.000629      0.000012      0.000000
      0.000637      0.000012      0.000000
      0.000645      0.000012      0.000000
      0.000652      0.000012      0.000000
      0.000660      0.000012      0.000000
      0.000668      0.000012      0.000000
      0.000676      0.000012      0.000000
      0.000684      0.000012      0.000000
      0.000691      0.000012      0.000000
      0.000699      0.000012      0.000000
      0.000707      0.000012      0.000000
      0.000715      0.000012      0.000000
      0.000723      0.000012      0.000000
      0.000730      0.000012      0.000000
      0.000738      0.000012      0.000000
      0.000746      0.000012      0.000000
      0.000754      0.000012      0.000000
      0.000762      0.000012      0.000000
      0.000770      0.000012      0.000000
      0.000777      0.000012      0.000000
      0.000785      0.000012      0.000000
[...]
POINT_DATA 16384
SCALARS rhoe double
LOOKUP_TABLE default
 0.916736E-013
 0.912070E-013
 0.915540E-013
 0.915197E-013
 0.916406E-013
 0.917058E-013
 0.917883E-013
 0.918657E-013
 0.919441E-013
 0.920220E-013
 0.920996E-013
 0.921771E-013
 0.922542E-013
 0.923310E-013
 0.924076E-013
 0.924838E-013
 0.925597E-013
 0.926352E-013
 0.927103E-013
 0.927850E-013
 0.928592E-013
 0.929329E-013
 0.930061E-013
 0.930787E-013
 0.931508E-013
 0.932222E-013
 0.932929E-013
 0.933629E-013
 0.934322E-013
 0.935005E-013
 0.935681E-013
 0.936346E-013
 0.937002E-013
 0.937647E-013
 0.938281E-013
 0.938903E-013
 0.939513E-013
 0.940109E-013
 0.940691E-013
 0.941259E-013
 0.941812E-013
 0.942348E-013
 0.942868E-013
 0.943370E-013
 0.943854E-013
 0.944319E-013
 0.944764E-013
 0.945189E-013
 0.945593E-013
 0.945976E-013
 0.946336E-013
 0.946673E-013
 0.946986E-013
 0.947276E-013
 0.947541E-013
 0.947781E-013
 0.947995E-013
 0.948184E-013
 0.948346E-013
 0.948482E-013
 0.948591E-013
 0.948673E-013
 0.948727E-013
 0.948755E-013
 0.948755E-013
 0.948727E-013
 0.948673E-013
 0.948591E-013
 0.948482E-013
 0.948346E-013
 0.948184E-013
 0.947995E-013
 0.947781E-013
 0.947541E-013
 0.947276E-013
 0.946987E-013
 0.946673E-013
 0.946336E-013
 0.945976E-013
 0.945594E-013
 0.945190E-013
 0.944765E-013
 0.944319E-013
 0.943854E-013
 0.943370E-013
 0.942868E-013
 0.942348E-013
 0.941812E-013
 0.941260E-013
 0.940692E-013
 0.940109E-013
 0.939513E-013
 0.938904E-013
 0.938282E-013
 0.937648E-013
 0.937002E-013
 0.936347E-013
 0.935681E-013
 0.935006E-013
 0.934322E-013
 0.933630E-013
 0.932930E-013
 0.932222E-013
 0.931508E-013
 0.930788E-013
 0.930061E-013
 0.929329E-013
 0.928592E-013
 0.927850E-013
 0.927103E-013
 0.926352E-013
 0.925597E-013
 0.924838E-013
 0.924076E-013
 0.923311E-013
 0.922542E-013
 0.921771E-013
 0.920997E-013
 0.920220E-013
 0.919441E-013
 0.918657E-013
 0.917883E-013
 0.917058E-013
 0.916406E-013
 0.915198E-013
 0.915540E-013
 0.912070E-013
 0.916736E-013
 0.912070E-013
 0.907558E-013
 0.909420E-013
 0.907693E-013
 0.907636E-013
 0.906924E-013
 0.906436E-013
 0.905883E-013
 0.905349E-013
 0.904813E-013
 0.904279E-013
 0.903747E-013
 0.903217E-013
 0.902689E-013
 0.902163E-013
 0.901639E-013
 0.901118E-013
 0.900599E-013
 0.900083E-013
 0.899570E-013
 0.899060E-013
 0.898553E-013
 0.898050E-013
 0.897551E-013
 0.897055E-013
 0.896564E-013
 0.896078E-013
 0.895597E-013
 0.895120E-013
 0.894650E-013
 0.894186E-013
 0.893728E-013
 0.893276E-013
 0.892832E-013
 0.892396E-013
 0.891968E-013
 0.891548E-013
 0.891138E-013
 0.890737E-013
 0.890346E-013
 0.889965E-013
 0.889596E-013
 0.889238E-013
 0.888892E-013
 0.888558E-013
 0.888238E-013
 0.887931E-013
 0.887638E-013
 0.887360E-013
 0.887096E-013
 0.886848E-013
 0.886615E-013
 0.886399E-013
 0.886199E-013
 0.886017E-013
 0.885851E-013
 0.885703E-013
 0.885573E-013
 0.885461E-013
 0.885368E-013
 0.885293E-013
 0.885236E-013
 0.885199E-013
 0.885180E-013
 0.885180E-013
 0.885199E-013
 0.885236E-013
 0.885293E-013
 0.885368E-013
 0.885461E-013
 0.885573E-013
 0.885703E-013
 0.885851E-013
 0.886017E-013
 0.886199E-013
 0.886399E-013
 0.886615E-013
 0.886848E-013
 0.887096E-013
 0.887360E-013
 0.887638E-013
 0.887931E-013
 0.888238E-013
 0.888559E-013
 0.888892E-013
 0.889238E-013
 0.889596E-013
 0.889965E-013
 0.890346E-013
 0.890737E-013
 0.891138E-013
 0.891549E-013
 0.891968E-013
 0.892396E-013
 0.892833E-013
 0.893277E-013
 0.893728E-013
 0.894186E-013
 0.894650E-013
 0.895121E-013
 0.895597E-013
 0.896078E-013
 0.896564E-013
 0.897055E-013
 0.897551E-013
 0.898050E-013
 0.898553E-013
 0.899060E-013
 0.899570E-013
 0.900083E-013
 0.900599E-013
 0.901118E-013
 0.901639E-013
 0.902163E-013
 0.902689E-013
 0.903217E-013
 0.903747E-013
 0.904279E-013
 0.904813E-013
 0.905349E-013
 0.905883E-013
 0.906436E-013
 0.906924E-013
 0.907636E-013
 0.907693E-013
 0.909420E-013
 0.907558E-013
 0.912070E-013
 0.915540E-013
 0.909420E-013
 0.913347E-013
 0.911915E-013
 0.912910E-013
 0.912961E-013
 0.913330E-013
 0.913603E-013
 0.913900E-013
 0.914191E-013
 0.914482E-013
 0.914771E-013
 0.915060E-013
 0.915347E-013
 0.915633E-013
 0.915918E-013
 0.916201E-013
 0.916483E-013
 0.916764E-013
 0.917043E-013
 0.917321E-013
 0.917596E-013
 0.917870E-013
 0.918142E-013
 0.918411E-013
 0.918678E-013
 0.918943E-013
 0.919205E-013
 0.919464E-013
 0.919720E-013
 0.919972E-013
 0.920222E-013
 0.920467E-013
 0.920709E-013
 0.920946E-013
 0.921179E-013
 0.921408E-013
 0.921631E-013
 0.921850E-013
 0.922062E-013
 0.922270E-013
 0.922471E-013
 0.922666E-013
 0.922854E-013
 0.923036E-013
 0.923210E-013
 0.923377E-013
 0.923537E-013
 0.923689E-013
 0.923832E-013
 0.923968E-013
 0.924094E-013
 0.924212E-013
 0.924321E-013
 0.924420E-013
 0.924510E-013
 0.924591E-013
 0.924662E-013
 0.924723E-013
 0.924774E-013
 0.924815E-013
 0.924846E-013
 0.924866E-013
 0.924876E-013
 0.924876E-013
 0.924866E-013
 0.924846E-013
 0.924815E-013
 0.924774E-013
 0.924723E-013
 0.924662E-013
 0.924591E-013
 0.924510E-013
 0.924420E-013
 0.924321E-013
 0.924212E-013
 0.924094E-013
 0.923967E-013
 0.923832E-013
 0.923689E-013
 0.923537E-013
 0.923377E-013
 0.923210E-013
 0.923036E-013
 0.922854E-013
 0.922666E-013
 0.922471E-013
 0.922269E-013
 0.922062E-013
 0.921849E-013
 0.921631E-013
 0.921408E-013
 0.921179E-013
 0.920946E-013
 0.920709E-013
 0.920467E-013
 0.920221E-013
 0.919972E-013
 0.919719E-013
 0.919463E-013
 0.919204E-013
 0.918942E-013
 0.918678E-013
 0.918411E-013
 0.918141E-013
 0.917870E-013
 0.917596E-013
 0.917320E-013
 0.917043E-013
 0.916764E-013
 0.916483E-013
 0.916201E-013
 0.915918E-013
 0.915633E-013
 0.915347E-013
 0.915059E-013
 0.914771E-013
 0.914482E-013
 0.914191E-013
 0.913900E-013
 0.913603E-013
 0.913329E-013
 0.912961E-013
 0.912910E-013
 0.911915E-013
 0.913347E-013
 0.909420E-013
 0.915540E-013
 0.915197E-013
 0.907693E-013
 0.911915E-013
 0.909659E-013
 0.910400E-013
 0.909961E-013
 0.909924E-013
 0.909768E-013
 0.909643E-013
 0.909512E-013
 0.909383E-013
 0.909253E-013
 0.909125E-013
 0.908997E-013
 0.908869E-013
 0.908742E-013
 0.908616E-013
 0.908490E-013
 0.908365E-013
 0.908240E-013
 0.908117E-013
 0.907994E-013
 0.907872E-013
 0.907750E-013
 0.907630E-013
 0.907511E-013
 0.907393E-013
 0.907276E-013
 0.907161E-013
 0.907047E-013
 0.906934E-013
 0.906823E-013
 0.906713E-013
 0.906605E-013
 0.906500E-013
 0.906396E-013
 0.906294E-013
 0.906194E-013
 0.906097E-013
 0.906002E-013
 0.905909E-013
 0.905819E-013
 0.905732E-013
 0.905648E-013
 0.905567E-013
 0.905489E-013
 0.905415E-013
 0.905344E-013
 0.905276E-013
 0.905212E-013
 0.905151E-013
 0.905095E-013
 0.905042E-013
 0.904994E-013
 0.904949E-013
 0.904909E-013
 0.904873E-013
 0.904842E-013
 0.904814E-013
 0.904792E-013
 0.904773E-013
 0.904760E-013
 0.904750E-013
 0.904746E-013
 0.904746E-013
 0.904750E-013
 0.904760E-013
 0.904773E-013
 0.904792E-013
 0.904814E-013
 0.904842E-013
 0.904873E-013
 0.904909E-013
 0.904949E-013
 0.904994E-013
 0.905042E-013
 0.905095E-013
 0.905152E-013
 0.905212E-013
 0.905276E-013
 0.905344E-013
 0.905415E-013
 0.905490E-013
 0.905567E-013
 0.905648E-013
 0.905733E-013
 0.905820E-013
 0.905909E-013
 0.906002E-013
 0.906097E-013
 0.906194E-013
 0.906294E-013
 0.906396E-013
 0.906500E-013
 0.906606E-013
 0.906713E-013
 0.906823E-013
 0.906934E-013
 0.907047E-013
 0.907161E-013
 0.907277E-013
 0.907393E-013
 0.907511E-013
 0.907630E-013
 0.907751E-013
 0.907872E-013
 0.907994E-013
 0.908117E-013
 0.908240E-013
 0.908365E-013
 0.908490E-013
 0.908616E-013
 0.908742E-013
 0.908869E-013
 0.908997E-013
 0.909125E-013
 0.909254E-013
 0.909383E-013
 0.909512E-013
 0.909643E-013
 0.909768E-013
 0.909924E-013
 0.909961E-013
 0.910400E-013
 0.909659E-013
 0.911915E-013
 0.907693E-013
 0.915198E-013
 0.916406E-013
 0.907636E-013
 0.912910E-013
 0.910400E-013
 0.911506E-013
 0.911181E-013
 0.911346E-013
 0.911363E-013
 0.911420E-013
 0.911467E-013
 0.911516E-013
 0.911565E-013
 0.911613E-013
 0.911661E-013
 0.911709E-013
 0.911757E-013
 0.911804E-013
 0.911851E-013
 0.911898E-013
 0.911945E-013
 0.911992E-013
 0.912038E-013
 0.912083E-013
 0.912129E-013
 0.912174E-013
 0.912219E-013
 0.912263E-013
 0.912307E-013
 0.912350E-013
 0.912393E-013
 0.912435E-013
 0.912477E-013
 0.912518E-013
 0.912559E-013
 0.912598E-013
 0.912638E-013
 0.912676E-013
 0.912713E-013
 0.912750E-013
 0.912785E-013
 0.912820E-013
 0.912854E-013
 0.912886E-013
 0.912918E-013
 0.912948E-013
 0.912978E-013
 0.913006E-013
 0.913032E-013
 0.913058E-013
 0.913082E-013
 0.913105E-013
 0.913126E-013
 0.913146E-013
 0.913164E-013
 0.913181E-013
 0.913196E-013
 0.913209E-013
 0.913221E-013
 0.913231E-013
 0.913240E-013
 0.913247E-013
 0.913252E-013
 0.913255E-013
 0.913257E-013
 0.913257E-013
 0.913255E-013
 0.913252E-013
 0.913247E-013
 0.913240E-013
 0.913231E-013
 0.913221E-013
 0.913209E-013
 0.913196E-013
 0.913181E-013
 0.913164E-013
 0.913146E-013
 0.913126E-013
 0.913105E-013
 0.913082E-013
 0.913058E-013
 0.913032E-013
 0.913006E-013
 0.912978E-013
 0.912948E-013
 0.912918E-013
 0.912886E-013
 0.912854E-013
 0.912820E-013
 0.912785E-013
 0.912750E-013
 0.912713E-013
 0.912676E-013
 0.912637E-013
 0.912598E-013
 0.912559E-013
 0.912518E-013
 0.912477E-013
 0.912435E-013
 0.912393E-013
 0.912350E-013
 0.912307E-013
 0.912263E-013
 0.912219E-013
 0.912174E-013
 0.912129E-013
 0.912083E-013
 0.912038E-013
 0.911991E-013
 0.911945E-013
 0.911898E-013
 0.911851E-013
 0.911804E-013
 0.911757E-013
 0.911709E-013
 0.911661E-013
 0.911613E-013
 0.911565E-013
 0.911516E-013
 0.911467E-013
 0.911420E-013
 0.911363E-013
 0.911346E-013
 0.911181E-013
 0.911506E-013
 0.910400E-013
 0.912910E-013
 0.907636E-013
 0.916406E-013
 0.917058E-013
 0.906924E-013
 0.912961E-013
 0.909961E-013
 0.911181E-013
 0.910726E-013
 0.910846E-013
 0.910793E-013
 0.910786E-013
 0.910769E-013
 0.910753E-013
 0.910738E-013
 0.910722E-013
 0.910707E-013
 0.910691E-013
 0.910676E-013
 0.910660E-013
 0.910645E-013
 0.910630E-013
 0.910615E-013
 0.910600E-013
 0.910585E-013
 0.910570E-013
 0.910555E-013
 0.910541E-013
 0.910526E-013
 0.910512E-013
 0.910498E-013
 0.910484E-013
 0.910470E-013
 0.910456E-013
 0.910443E-013
 0.910430E-013
 0.910417E-013
 0.910404E-013
 0.910391E-013
 0.910379E-013
 0.910367E-013
 0.910355E-013
 0.910344E-013
 0.910332E-013
 0.910321E-013
 0.910311E-013
 0.910301E-013
 0.910291E-013
 0.910282E-013
 0.910273E-013
 0.910264E-013
 0.910256E-013
 0.910248E-013
 0.910241E-013
 0.910234E-013
 0.910228E-013
 0.910222E-013
 0.910216E-013
 0.910211E-013
 0.910207E-013
 0.910203E-013
 0.910200E-013
 0.910197E-013
 0.910195E-013
 0.910193E-013
 0.910192E-013
 0.910192E-013
 0.910192E-013
 0.910192E-013
 0.910193E-013
 0.910195E-013
 0.910197E-013
 0.910200E-013
 0.910203E-013
 0.910207E-013
 0.910211E-013
 0.910216E-013
 0.910222E-013
 0.910228E-013
 0.910234E-013
 0.910241E-013
 0.910248E-013
 0.910256E-013
 0.910264E-013
 0.910273E-013
 0.910282E-013
 0.910291E-013
 0.910301E-013
 0.910311E-013
 0.910322E-013
 0.910332E-013
 0.910344E-013
 0.910355E-013
 0.910367E-013
 0.910379E-013
 0.910391E-013
 0.910404E-013
 0.910417E-013
 0.910430E-013
 0.910443E-013
 0.910456E-013
 0.910470E-013
 0.910484E-013
 0.910498E-013
 0.910512E-013
 0.910526E-013
 0.910541E-013
 0.910555E-013
 0.910570E-013
 0.910585E-013
 0.910600E-013
 0.910615E-013
 0.910630E-013
 0.910645E-013
 0.910660E-013
 0.910676E-013
 0.910691E-013
 0.910707E-013
 0.910722E-013
 0.910738E-013
 0.910753E-013
 0.910769E-013
 0.910786E-013
 0.910793E-013
 0.910846E-013
 0.910726E-013
 0.911181E-013
 0.909961E-013
 0.912961E-013
 0.906924E-013
 0.917058E-013
 0.917883E-013
 0.906436E-013
 0.913330E-013
 0.909924E-013
 0.911346E-013
 0.910846E-013
 0.911007E-013
 0.910968E-013
 0.910983E-013
 0.910986E-013
 0.910990E-013
 0.910995E-013
 0.910999E-013
 0.911004E-013
 0.911008E-013
 0.911012E-013
 0.911017E-013
 0.911021E-013
 0.911025E-013
 0.911030E-013
 0.911034E-013
 0.911038E-013
 0.911042E-013
 0.911046E-013
 0.911051E-013
 0.911055E-013
 0.911059E-013
 0.911063E-013
 0.911067E-013
 0.911071E-013
 0.911075E-013
 0.911078E-013
 0.911082E-013
 0.911086E-013
 0.911090E-013
 0.911093E-013
 0.911097E-013
 0.911100E-013
 0.911103E-013
 0.911107E-013
 0.911110E-013
 0.911113E-013
 0.911116E-013
 0.911119E-013
 0.911122E-013
 0.911125E-013
 0.911127E-013
 0.911130E-013
 0.911132E-013
 0.911134E-013
 0.911136E-013
 0.911138E-013
 0.911140E-013
 0.911142E-013
 0.911143E-013
 0.911145E-013
 0.911146E-013
 0.911147E-013
 0.911148E-013
 0.911149E-013
 0.911150E-013
 0.911150E-013
 0.911150E-013
 0.911151E-013
 0.911151E-013
 0.911150E-013
 0.911150E-013
 0.911150E-013
 0.911149E-013
 0.911148E-013
 0.911147E-013
 0.911146E-013
 0.911145E-013
 0.911143E-013
 0.911142E-013
 0.911140E-013
 0.911138E-013
 0.911136E-013
 0.911134E-013
 0.911132E-013
 0.911130E-013
 0.911127E-013
 0.911125E-013
 0.911122E-013
 0.911119E-013
 0.911116E-013
 0.911113E-013
 0.911110E-013
 0.911107E-013
 0.911103E-013
 0.911100E-013
 0.911097E-013
 0.911093E-013
 0.911090E-013
 0.911086E-013
 0.911082E-013
 0.911078E-013
 0.911075E-013
 0.911071E-013
 0.911067E-013
 0.911063E-013
 0.911059E-013
 0.911055E-013
 0.911051E-013
 0.911046E-013
 0.911042E-013
 0.911038E-013
 0.911034E-013
 0.911030E-013
 0.911025E-013
 0.911021E-013
 0.911017E-013
 0.911012E-013
 0.911008E-013
 0.911004E-013
 0.910999E-013
 0.910995E-013
 0.910990E-013
 0.910986E-013
 0.910983E-013
 0.910968E-013
 0.911007E-013
 0.910846E-013
 0.911346E-013
 0.909924E-013
 0.913329E-013
 0.906436E-013
 0.917883E-013
 0.918657E-013
 0.905883E-013
 0.913603E-013
 0.909768E-013
 0.911363E-013
 0.910793E-013
 0.910968E-013
 0.910919E-013
 0.910930E-013
 0.910926E-013
 0.910925E-013
 0.910924E-013
 0.910923E-013
 0.910922E-013
 0.910921E-013
 0.910920E-013
 0.910919E-013
 0.910918E-013
 0.910917E-013
 0.910916E-013
 0.910915E-013
 0.910913E-013
 0.910912E-013
 0.910911E-013
 0.910910E-013
 0.910909E-013
 0.910908E-013
 0.910907E-013
 0.910906E-013
 0.910905E-013
 0.910905E-013
 0.910904E-013
 0.910903E-013
 0.910902E-013
 0.910901E-013
 0.910900E-013
 0.910899E-013
 0.910898E-013
 0.910898E-013
 0.910897E-013
 0.910896E-013
 0.910895E-013
 0.910895E-013
 0.910894E-013
 0.910893E-013
 0.910893E-013
 0.910892E-013
 0.910892E-013
 0.910891E-013
 0.910890E-013
 0.910890E-013
 0.910890E-013
 0.910889E-013
 0.910889E-013
 0.910888E-013
 0.910888E-013
 0.910888E-013
 0.910888E-013
 0.910887E-013
 0.910887E-013
 0.910887E-013
 0.910887E-013
 0.910887E-013
 0.910887E-013
 0.910887E-013
 0.910887E-013
 0.910887E-013
 0.910887E-013
 0.910887E-013
 0.910887E-013
 0.910888E-013
 0.910888E-013
 0.910888E-013
 0.910888E-013
 0.910889E-013
 0.910889E-013
 0.910890E-013
 0.910890E-013
 0.910890E-013
 0.910891E-013
 0.910892E-013
 0.910892E-013
 0.910893E-013
 0.910893E-013
 0.910894E-013
 0.910895E-013
 0.910895E-013
 0.910896E-013
 0.910897E-013
 0.910898E-013
 0.910898E-013
 0.910899E-013
 0.910900E-013
 0.910901E-013
 0.910902E-013
 0.910903E-013
 0.910904E-013
 0.910905E-013
 0.910905E-013
 0.910906E-013
 0.910907E-013
 0.910908E-013
 0.910909E-013
 0.910910E-013
 0.910911E-013
 0.910912E-013
 0.910913E-013
 0.910915E-013
 0.910916E-013
 0.910917E-013
 0.910918E-013
 0.910919E-013
 0.910920E-013
 0.910921E-013
 0.910922E-013
 0.910923E-013
 0.910924E-013
 0.910925E-013
 0.910926E-013
 0.910930E-013
 0.910919E-013
 0.910968E-013
 0.910793E-013
 0.911363E-013
 0.909768E-013
 0.913603E-013
 0.905883E-013
 0.918657E-013
 0.919441E-013
 0.905349E-013
 0.913900E-013
 0.909643E-013
 0.911420E-013
 0.910786E-013
 0.910983E-013
 0.910930E-013
 0.910943E-013
 0.910941E-013
 0.910941E-013
 0.910942E-013
 0.910942E-013
 0.910942E-013
 0.910942E-013
 0.910943E-013
 0.910943E-013
 0.910943E-013
 0.910943E-013
 0.910944E-013
 0.910944E-013
 0.910944E-013
 0.910944E-013
 0.910945E-013
 0.910945E-013
 0.910945E-013
 0.910945E-013
 0.910946E-013
 0.910946E-013
 0.910946E-013
 0.910946E-013
 0.910947E-013
 0.910947E-013
 0.910947E-013
 0.910947E-013
 0.910948E-013
 0.910948E-013
 0.910948E-013
 0.910948E-013
 0.910948E-013
 0.910949E-013
 0.910949E-013
 0.910949E-013
 0.910949E-013
 0.910950E-013
 0.910950E-013
 0.910950E-013
 0.910950E-013
 0.910950E-013
 0.910951E-013
 0.910951E-013
 0.910951E-013
 0.910951E-013
 0.910951E-013
 0.910951E-013
 0.910951E-013
 0.910952E-013
 0.910952E-013
 0.910952E-013
 0.910952E-013
 0.910952E-013
 0.910952E-013
 0.910952E-013
 0.910952E-013
 0.910952E-013
 0.910952E-013
 0.910952E-013
 0.910952E-013
 0.910952E-013
 0.910952E-013
 0.910952E-013
 0.910952E-013
 0.910951E-013
 0.910951E-013
 0.910951E-013
 0.910951E-013
 0.910951E-013
 0.910951E-013
 0.910951E-013
 0.910950E-013
 0.910950E-013
 0.910950E-013
 0.910950E-013
 0.910950E-013
 0.910949E-013
 0.910949E-013
 0.910949E-013
 0.910949E-013
 0.910948E-013
 0.910948E-013
 0.910948E-013
 0.910948E-013
 0.910948E-013
 0.910947E-013
 0.910947E-013
 0.910947E-013
 0.910947E-013
 0.910946E-013
 0.910946E-013
 0.910946E-013
 0.910946E-013
 0.910945E-013
 0.910945E-013
 0.910945E-013
 0.910945E-013
 0.910944E-013
 0.910944E-013
 0.910944E-013
 0.910944E-013
 0.910943E-013
 0.910943E-013
 0.910943E-013
 0.910943E-013
 0.910942E-013
 0.910942E-013
 0.910942E-013
 0.910942E-013
 0.910941E-013
 0.910941E-013
 0.910943E-013
 0.910930E-013
 0.910983E-013
 0.910786E-013
 0.911420E-013
 0.909643E-013
 0.913900E-013
 0.905349E-013
 0.919441E-013
 0.920220E-013
 0.904813E-013
 0.914191E-013
 0.909512E-013
 0.911467E-013
 0.910769E-013
 0.910986E-013
 0.910926E-013
 0.910941E-013
 0.910937E-013
 0.910938E-013
 0.910938E-013
 0.910938E-013
 0.910938E-013
 0.910938E-013
 0.910938E-013
 0.910938E-013
 0.910937E-013
 0.910937E-013
 0.910937E-013
 0.910937E-013
 0.910937E-013
 0.910937E-013
 0.910937E-013
 0.910937E-013
 0.910937E-013
 0.910937E-013
 0.910937E-013
 0.910937E-013
 0.910937E-013
 0.910937E-013
 0.910937E-013
 0.910937E-013
 0.910937E-013
 0.910937E-013
 0.910937E-013
 0.910937E-013
 0.910937E-013
 0.910937E-013
 0.910937E-013
 0.910937E-013
 0.910937E-013
 0.910937E-013
 0.910937E-013
 0.910937E-013
 0.910937E-013
 0.910937E-013
 0.910937E-013
 0.910937E-013
 0.910938E-013
 0.910938E-013
 0.910938E-013
 0.910938E-013
 0.910938E-013
 0.910938E-013
 0.910938E-013
 0.910938E-013
 0.910938E-013
 0.910938E-013
 0.910938E-013
 0.910938E-013
 0.910938E-013
 0.910938E-013
 0.910938E-013
 0.910938E-013
 0.910938E-013
 0.910938E-013
 0.910938E-013
 0.910938E-013
 0.910938E-013
 0.910938E-013
 0.910938E-013
 0.910938E-013
 0.910938E-013
 0.910938E-013
 0.910938E-013
 0.910938E-013
 0.910938E-013
 0.910938E-013
 0.910937E-013
 0.910937E-013
 0.910937E-013
 0.910937E-013
 0.910937E-013
 0.910937E-013
 0.910937E-013
 0.910937E-013
 0.910937E-013
 0.910937E-013
 0.910937E-013
 0.910937E-013
 0.910937E-013
 0.910937E-013
 0.910937E-013
 0.910937E-013
 0.910937E-013
 0.910937E-013
 0.910937E-013
 0.910937E-013
 0.910937E-013
 0.910937E-013
 0.910937E-013
 0.910937E-013
 0.910937E-013
 0.910937E-013
 0.910937E-013
 0.910937E-013
 0.910937E-013
 0.910937E-013
 0.910937E-013
 0.910937E-013
 0.910938E-013
 0.910938E-013
 0.910938E-013
 0.910938E-013
 0.910938E-013
 0.910938E-013
 0.910938E-013
 0.910937E-013
 0.910941E-013
 0.910926E-013
 0.910986E-013
 0.910769E-013
 0.911467E-013
 0.909512E-013
 0.914191E-013
 0.904813E-013
 0.920220E-013
 0.920996E-013
 0.904279E-013
 0.914482E-013
 0.909383E-013
 0.911516E-013
 0.910753E-013
 0.910990E-013
 0.910925E-013
 0.910941E-013
 0.910938E-013
 0.910939E-013
 0.910938E-013
 0.910939E-013
 0.910939E-013
 0.910939E-013
 0.910939E-013
 0.910939E-013
 0.910939E-013
 0.910939E-013
 0.910939E-013
 0.910939E-013
 0.910939E-013
 0.910939E-013
 0.910939E-013
 0.910939E-013
 0.910939E-013
 0.910939E-013
 0.910939E-013
 0.910939E-013
 0.910939E-013
 0.910939E-013
 0.910939E-013
 0.910939E-013
 0.910939E-013
 0.910939E-013
 0.910939E-013
 0.910939E-013
 0.910939E-013
 0.910940E-013
 0.910940E-013
 0.910940E-013
 0.910940E-013
 0.910940E-013
 0.910940E-013
 0.910940E-013
 0.910940E-013
 0.910940E-013
 0.910940E-013
 0.910940E-013