# vtk DataFile Version 3.0
Solution data
ASCII
DATASET STRUCTURED_GRID
DIMENSIONS 128 128 1
POINTS 16384  double
      0.000004      0.000004      0.000000
      0.000012      0.000004      0.000000
      0.000020      0.000004      0.000000
      0.000027      0.000004      0.000000
      0.000035      0.000004      0.000000
      0.000043      0.000004      0.000000
      0.000051      0.000004      0.000000
      0.000059      0.000004      0.000000
      0.000066      0.000004      0.000000
      0.000074      0.000004      0.000000
      0.000082      0.000004      0.000000
      0.000090      0.000004      0.000000
      0.000098      0.000004      0.000000
      0.000105      0.000004      0.000000
      0.000113      0.000004      0.000000
      0.000121      0.000004      0.000000
      0.000129      0.000004      0.000000
      0.000137      0.000004      0.000000
      0.000145      0.000004      0.000000
      0.000152      0.000004      0.000000
      0.000160      0.000004      0.000000
      0.000168      0.000004      0.000000
      0.000176      0.000004      0.000000
      0.000184      0.000004      0.000000
      0.000191      0.000004      0.000000
      0.000199      0.000004      0.000000
      0.000207      0.000004      0.000000
      0.000215      0.000004      0.000000
      0.000223      0.000004      0.000000
      0.000230      0.000004      0.000000
      0.000238      0.000004      0.000000
      0.000246      0.000004      0.000000
      0.000254      0.000004      0.000000
      0.000262      0.000004      0.000000
      0.000270      0.000004      0.000000
      0.000277      0.000004      0.000000
      0.000285      0.000004      0.000000
      0.000293      0.000004      0.000000
      0.000301      0.000004      0.000000
      0.000309      0.000004      0.000000
      0.000316      0.000004      0.000000
      0.000324      0.000004      0.000000
      0.000332      0.000004      0.000000
      0.000340      0.000004      0.000000
      0.000348      0.000004      0.000000
      0.000355      0.000004      0.000000
      0.000363      0.000004      0.000000
      0.000371      0.000004      0.000000
      0.000379      0.000004      0.000000
      0.000387      0.000004      0.000000
      0.000395      0.000004      0.000000
      0.000402      0.000004      0.000000
      0.000410      0.000004      0.000000
      0.000418      0.000004      0.000000
      0.000426      0.000004      0.000000
      0.000434      0.000004      0.000000
      0.000441      0.000004      0.000000
      0.000449      0.000004      0.000000
      0.000457      0.000004      0.000000
      0.000465      0.000004      0.000000
      0.000473      0.000004      0.000000
      0.000480      0.000004      0.000000
      0.000488      0.000004      0.000000
      0.000496      0.000004      0.000000
      0.000504      0.000004      0.000000
      0.000512      0.000004      0.000000
      0.000520      0.000004      0.000000
      0.000527      0.000004      0.000000
      0.000535      0.000004      0.000000
      0.000543      0.000004      0.000000
      0.000551      0.000004      0.000000
      0.000559      0.000004      0.000000
      0.000566      0.000004      0.000000
      0.000574      0.000004      0.000000
      0.000582      0.000004      0.000000
      0.000590      0.000004      0.000000
      0.000598      0.000004      0.000000
      0.000605      0.000004      0.000000
      0.000613      0.000004      0.000000
      0.000621      0.000004      0.000000
      0.000629      0.000004      0.000000
      0.000637      0.000004      0.000000
      0.000645      0.000004      0.000000
      0.000652      0.000004      0.000000
      0.000660      0.000004      0.000000
      0.000668      0.000004      0.000000
      0.000676      0.000004      0.000000
      0.000684      0.000004      0.000000
      0.000691      0.000004      0.000000
      0.000699      0.000004      0.000000
      0.000707      0.000004      0.000000
      0.000715      0.000004      0.000000
      0.000723      0.000004      0.000000
      0.000730      0.000004      0.000000
      0.000738      0.000004      0.000000
      0.000746      0.000004      0.000000
      0.000754      0.000004      0.000000
      0.000762      0.000004      0.000000
      0.000770      0.000004      0.000000
      0.000777      0.000004      0.000000
      0.000785      0.000004      0.000000
      0.000793      0.000004      0.000000
      0.000801      0.000004      0.000000
      0.000809      0.000004      0.000000
      0.000816      0.000004      0.000000
      0.000824      0.000004      0.000000
      0.000832      0.000004      0.000000
      0.000840      0.000004      0.000000
      0.000848      0.000004      0.000000
      0.000855      0.000004      0.000000
      0.000863      0.000004      0.000000
      0.000871      0.000004      0.000000
      0.000879      0.000004      0.000000
      0.000887      0.000004      0.000000
      0.000895      0.000004      0.000000
      0.000902      0.000004      0.000000
      0.000910      0.000004      0.000000
      0.000918      0.000004      0.000000
      0.000926      0.000004      0.000000
      0.000934      0.000004      0.000000
      0.000941      0.000004      0.000000
      0.000949      0.000004      0.000000
      0.000957      0.000004      0.000000
      0.000965      0.000004      0.000000
      0.000973      0.000004      0.000000
      0.000980      0.000004      0.000000
      0.000988      0.000004      0.000000
      0.000996      0.000004      0.000000
      0.000004      0.000012      0.000000
      0.000012      0.000012      0.000000
      0.000020      0.000012      0.000000
      0.000027      0.000012      0.000000
      0.000035      0.000012      0.000000
      0.000043      0.000012      0.000000
      0.000051      0.000012      0.000000
      0.000059      0.000012      0.000000
      0.000066      0.000012      0.000000
      0.000074      0.000012      0.000000
      0.000082      0.000012      0.000000
      0.000090      0.000012      0.000000
      0.000098      0.000012      0.000000
      0.000105      0.000012      0.000000
      0.000113      0.000012      0.000000
      0.000121      0.000012      0.000000
      0.000129      0.000012      0.000000
      0.000137      0.000012      0.000000
      0.000145      0.000012      0.000000
      0.000152      0.000012      0.000000
      0.000160      0.000012      0.000000
      0.000168      0.000012      0.000000
      0.000176      0.000012      0.000000
      0.000184      0.000012      0.000000
      0.000191      0.000012      0.000000
      0.000199      0.000012      0.000000
      0.000207      0.000012      0.000000
      0.000215      0.000012      0.000000
      0.000223      0.000012      0.000000
      0.000230      0.000012      0.000000
      0.000238      0.000012      0.000000
      0.000246      0.000012      0.000000
      0.000254      0.000012      0.000000
      0.000262      0.000012      0.000000
      0.000270      0.000012      0.000000
      0.000277      0.000012      0.000000
      0.000285      0.000012      0.000000
      0.000293      0.000012      0.000000
      0.000301      0.000012      0.000000
      0.000309      0.000012      0.000000
      0.000316      0.000012      0.000000
      0.000324      0.000012      0.000000
      0.000332      0.000012      0.000000
      0.000340      0.000012      0.000000
      0.000348      0.000012      0.000000
      0.000355      0.000012      0.000000
      0.000363      0.000012      0.000000
      0.000371      0.000012      0.000000
      0.000379      0.000012      0.000000
      0.000387      0.000012      0.000000
      0.000395      0.000012      0.000000
      0.000402      0.000012      0.000000
      0.000410      0.000012      0.000000
      0.000418      0.000012      0.000000
      0.000426      0.000012      0.000000
      0.000434      0.000012      0.000000
      0.000441      0.000012      0.000000
      0.000449      0.000012      0.000000
      0.000457      0.000012      0.000000
      0.000465      0.000012      0.000000
      0.000473      0.000012      0.000000
      0.000480      0.000012      0.000000
      0.000488      0.000012      0.000000
      0.000496      0.000012      0.000000
      0.000504      0.000012      0.000000
      0.000512      0.000012      0.000000
      0.000520      0.000012      0.000000
      0.000527      0.000012      0.000000
      0.000535      0.000012      0.000000
      0.000543      0.000012      0.000000
      0.000551      0.000012      0.000000
      0.000559      0.000012      0.000000
      0.000566      0.000012      0.000000
      0.000574      0.000012      0.000000
      0.000582      0.000012      0.000000
      0.000590      0.000012      0.000000
      0.000598      0.000012      0.000000
      0.000605      0.000012      0.000000
      0.000613      0.000012      0.000000
      0.000621      0.000012      0.000000
      0.000629      0.000012      0.000000
      0.000637      0.000012      0.000000
      0.000645      0.000012      0.000000
      0.000652      0.000012      0.000000
      0.000660      0.000012      0.000000
      0.000668      0.000012      0.000000
      0.000676      0.000012      0.000000
      0.000684      0.000012      0.000000
      0.000691      0.000012      0.000000
      0.000699      0.000012      0.000000
      0.000707      0.000012      0.000000
      0.000715      0.000012      0.000000
      0.000723      0.000012      0.000000
      0.000730      0.000012      0.000000
      0.000738      0.000012      0.000000
      0.000746      0.000012      0.000000
      0.000754      0.000012      0.000000
      0.000762      0.000012      0.000000
      0.000770      0.000012      0.000000
      0.000777      0.000012      0.000000
      0.000785      0.000012      0.000000
[...]
POINT_DATA 16384
SCALARS rhoe double
LOOKUP_TABLE default
 0.914715E-013
 0.913173E-013
 0.914854E-013
 0.915765E-013
 0.916816E-013
 0.917843E-013
 0.918871E-013
 0.919896E-013
 0.920919E-013
 0.921940E-013
 0.922958E-013
 0.923973E-013
 0.924986E-013
 0.925995E-013
 0.927001E-013
 0.928004E-013
 0.929004E-013
 0.929999E-013
 0.930990E-013
 0.931976E-013
 0.932958E-013
 0.933934E-013
 0.934904E-013
 0.935868E-013
 0.936825E-013
 0.937775E-013
 0.938717E-013
 0.939650E-013
 0.940574E-013
 0.941488E-013
 0.942391E-013
 0.943283E-013
 0.944162E-013
 0.945028E-013
 0.945880E-013
 0.946717E-013
 0.947538E-013
 0.948342E-013
 0.949128E-013
 0.949895E-013
 0.950643E-013
 0.951369E-013
 0.952073E-013
 0.952755E-013
 0.953412E-013
 0.954044E-013
 0.954650E-013
 0.955229E-013
 0.955780E-013
 0.956301E-013
 0.956792E-013
 0.957253E-013
 0.957682E-013
 0.958078E-013
 0.958440E-013
 0.958769E-013
 0.959062E-013
 0.959320E-013
 0.959543E-013
 0.959729E-013
 0.959878E-013
 0.959990E-013
 0.960065E-013
 0.960103E-013
 0.960103E-013
 0.960065E-013
 0.959990E-013
 0.959878E-013
 0.959728E-013
 0.959542E-013
 0.959320E-013
 0.959061E-013
 0.958768E-013
 0.958439E-013
 0.958076E-013
 0.957680E-013
 0.957252E-013
 0.956791E-013
 0.956300E-013
 0.955778E-013
 0.955227E-013
 0.954648E-013
 0.954042E-013
 0.953410E-013
 0.952753E-013
 0.952071E-013
 0.951367E-013
 0.950640E-013
 0.949893E-013
 0.949126E-013
 0.948339E-013
 0.947535E-013
 0.946714E-013
 0.945877E-013
 0.945025E-013
 0.944159E-013
 0.943280E-013
 0.942389E-013
 0.941485E-013
 0.940572E-013
 0.939648E-013
 0.938714E-013
 0.937773E-013
 0.936823E-013
 0.935866E-013
 0.934902E-013
 0.933932E-013
 0.932956E-013
 0.931974E-013
 0.930988E-013
 0.929997E-013
 0.929001E-013
 0.928002E-013
 0.926999E-013
 0.925993E-013
 0.924984E-013
 0.923971E-013
 0.922956E-013
 0.921938E-013
 0.920918E-013
 0.919895E-013
 0.918870E-013
 0.917842E-013
 0.916815E-013
 0.915764E-013
 0.914854E-013
 0.913173E-013
 0.914714E-013
 0.913173E-013
 0.909308E-013
 0.909959E-013
 0.909428E-013
 0.909129E-013
 0.908795E-013
 0.908466E-013
 0.908138E-013
 0.907811E-013
 0.907485E-013
 0.907160E-013
 0.906836E-013
 0.906512E-013
 0.906190E-013
 0.905870E-013
 0.905550E-013
 0.905232E-013
 0.904915E-013
 0.904599E-013
 0.904285E-013
 0.903973E-013
 0.903663E-013
 0.903355E-013
 0.903048E-013
 0.902745E-013
 0.902443E-013
 0.902144E-013
 0.901849E-013
 0.901556E-013
 0.901266E-013
 0.900980E-013
 0.900698E-013
 0.900420E-013
 0.900146E-013
 0.899876E-013
 0.899612E-013
 0.899353E-013
 0.899099E-013
 0.898850E-013
 0.898608E-013
 0.898373E-013
 0.898144E-013
 0.897921E-013
 0.897707E-013
 0.897500E-013
 0.897301E-013
 0.897110E-013
 0.896928E-013
 0.896754E-013
 0.896590E-013
 0.896436E-013
 0.896291E-013
 0.896156E-013
 0.896032E-013
 0.895918E-013
 0.895815E-013
 0.895722E-013
 0.895641E-013
 0.895571E-013
 0.895513E-013
 0.895466E-013
 0.895431E-013
 0.895407E-013
 0.895396E-013
 0.895396E-013
 0.895408E-013
 0.895431E-013
 0.895466E-013
 0.895513E-013
 0.895572E-013
 0.895642E-013
 0.895723E-013
 0.895815E-013
 0.895918E-013
 0.896032E-013
 0.896157E-013
 0.896292E-013
 0.896436E-013
 0.896591E-013
 0.896755E-013
 0.896928E-013
 0.897111E-013
 0.897301E-013
 0.897501E-013
 0.897708E-013
 0.897922E-013
 0.898144E-013
 0.898374E-013
 0.898609E-013
 0.898851E-013
 0.899100E-013
 0.899354E-013
 0.899613E-013
 0.899878E-013
 0.900147E-013
 0.900421E-013
 0.900699E-013
 0.900981E-013
 0.901267E-013
 0.901557E-013
 0.901850E-013
 0.902145E-013
 0.902444E-013
 0.902746E-013
 0.903049E-013
 0.903356E-013
 0.903664E-013
 0.903974E-013
 0.904286E-013
 0.904600E-013
 0.904915E-013
 0.905232E-013
 0.905551E-013
 0.905870E-013
 0.906191E-013
 0.906513E-013
 0.906836E-013
 0.907160E-013
 0.907486E-013
 0.907812E-013
 0.908139E-013
 0.908467E-013
 0.908795E-013
 0.909129E-013
 0.909428E-013
 0.909959E-013
 0.909309E-013
 0.913173E-013
 0.914854E-013
 0.909959E-013
 0.911431E-013
 0.911217E-013
 0.911336E-013
 0.911403E-013
 0.911476E-013
 0.911548E-013
 0.911620E-013
 0.911692E-013
 0.911764E-013
 0.911835E-013
 0.911906E-013
 0.911977E-013
 0.912048E-013
 0.912118E-013
 0.912189E-013
 0.912258E-013
 0.912328E-013
 0.912397E-013
 0.912466E-013
 0.912534E-013
 0.912602E-013
 0.912669E-013
 0.912736E-013
 0.912802E-013
 0.912868E-013
 0.912933E-013
 0.912997E-013
 0.913061E-013
 0.913124E-013
 0.913186E-013
 0.913247E-013
 0.913307E-013
 0.913367E-013
 0.913425E-013
 0.913482E-013
 0.913538E-013
 0.913592E-013
 0.913645E-013
 0.913697E-013
 0.913748E-013
 0.913797E-013
 0.913844E-013
 0.913889E-013
 0.913933E-013
 0.913975E-013
 0.914015E-013
 0.914053E-013
 0.914089E-013
 0.914123E-013
 0.914155E-013
 0.914185E-013
 0.914212E-013
 0.914237E-013
 0.914260E-013
 0.914280E-013
 0.914298E-013
 0.914314E-013
 0.914326E-013
 0.914337E-013
 0.914345E-013
 0.914350E-013
 0.914352E-013
 0.914352E-013
 0.914350E-013
 0.914345E-013
 0.914337E-013
 0.914326E-013
 0.914314E-013
 0.914298E-013
 0.914280E-013
 0.914260E-013
 0.914237E-013
 0.914212E-013
 0.914185E-013
 0.914155E-013
 0.914123E-013
 0.914089E-013
 0.914053E-013
 0.914015E-013
 0.913975E-013
 0.913933E-013
 0.913889E-013
 0.913844E-013
 0.913796E-013
 0.913748E-013
 0.913697E-013
 0.913645E-013
 0.913592E-013
 0.913537E-013
 0.913482E-013
 0.913425E-013
 0.913366E-013
 0.913307E-013
 0.913247E-013
 0.913186E-013
 0.913124E-013
 0.913061E-013
 0.912997E-013
 0.912933E-013
 0.912868E-013
 0.912802E-013
 0.912736E-013
 0.912669E-013
 0.912602E-013
 0.912534E-013
 0.912465E-013
 0.912397E-013
 0.912328E-013
 0.912258E-013
 0.912188E-013
 0.912118E-013
 0.912048E-013
 0.911977E-013
 0.911906E-013
 0.911835E-013
 0.911764E-013
 0.911692E-013
 0.911620E-013
 0.911548E-013
 0.911476E-013
 0.911403E-013
 0.911336E-013
 0.911217E-013
 0.911431E-013
 0.909959E-013
 0.914854E-013
 0.915765E-013
 0.909428E-013
 0.911217E-013
 0.910833E-013
 0.910880E-013
 0.910860E-013
 0.910849E-013
 0.910837E-013
 0.910825E-013
 0.910813E-013
 0.910801E-013
 0.910789E-013
 0.910777E-013
 0.910765E-013
 0.910753E-013
 0.910741E-013
 0.910730E-013
 0.910718E-013
 0.910706E-013
 0.910695E-013
 0.910683E-013
 0.910672E-013
 0.910661E-013
 0.910650E-013
 0.910638E-013
 0.910627E-013
 0.910617E-013
 0.910606E-013
 0.910595E-013
 0.910585E-013
 0.910574E-013
 0.910564E-013
 0.910554E-013
 0.910544E-013
 0.910534E-013
 0.910525E-013
 0.910515E-013
 0.910506E-013
 0.910497E-013
 0.910488E-013
 0.910480E-013
 0.910472E-013
 0.910464E-013
 0.910456E-013
 0.910449E-013
 0.910442E-013
 0.910435E-013
 0.910428E-013
 0.910422E-013
 0.910416E-013
 0.910411E-013
 0.910406E-013
 0.910401E-013
 0.910397E-013
 0.910393E-013
 0.910389E-013
 0.910386E-013
 0.910383E-013
 0.910380E-013
 0.910378E-013
 0.910377E-013
 0.910376E-013
 0.910375E-013
 0.910374E-013
 0.910374E-013
 0.910375E-013
 0.910376E-013
 0.910377E-013
 0.910378E-013
 0.910380E-013
 0.910383E-013
 0.910386E-013
 0.910389E-013
 0.910393E-013
 0.910397E-013
 0.910401E-013
 0.910406E-013
 0.910411E-013
 0.910416E-013
 0.910422E-013
 0.910428E-013
 0.910435E-013
 0.910442E-013
 0.910449E-013
 0.910456E-013
 0.910464E-013
 0.910472E-013
 0.910480E-013
 0.910488E-013
 0.910497E-013
 0.910506E-013
 0.910515E-013
 0.910525E-013
 0.910534E-013
 0.910544E-013
 0.910554E-013
 0.910564E-013
 0.910574E-013
 0.910585E-013
 0.910595E-013
 0.910606E-013
 0.910617E-013
 0.910627E-013
 0.910638E-013
 0.910650E-013
 0.910661E-013
 0.910672E-013
 0.910683E-013
 0.910695E-013
 0.910706E-013
 0.910718E-013
 0.910730E-013
 0.910741E-013
 0.910753E-013
 0.910765E-013
 0.910777E-013
 0.910789E-013
 0.910801E-013
 0.910813E-013
 0.910825E-013
 0.910837E-013
 0.910849E-013
 0.910860E-013
 0.910880E-013
 0.910833E-013
 0.911217E-013
 0.909428E-013
 0.915764E-013
 0.916816E-013
 0.909129E-013
 0.911336E-013
 0.910880E-013
 0.910956E-013
 0.910948E-013
 0.910950E-013
 0.910952E-013
 0.910953E-013
 0.910955E-013
 0.910957E-013
 0.910958E-013
 0.910960E-013
 0.910962E-013
 0.910963E-013
 0.910965E-013
 0.910966E-013
 0.910968E-013
 0.910969E-013
 0.910971E-013
 0.910973E-013
 0.910974E-013
 0.910976E-013
 0.910977E-013
 0.910979E-013
 0.910980E-013
 0.910982E-013
 0.910983E-013
 0.910985E-013
 0.910987E-013
 0.910988E-013
 0.910990E-013
 0.910991E-013
 0.910992E-013
 0.910994E-013
 0.910995E-013
 0.910997E-013
 0.910998E-013
 0.911000E-013
 0.911001E-013
 0.911002E-013
 0.911004E-013
 0.911005E-013
 0.911006E-013
 0.911007E-013
 0.911008E-013
 0.911010E-013
 0.911011E-013
 0.911012E-013
 0.911013E-013
 0.911014E-013
 0.911015E-013
 0.911015E-013
 0.911016E-013
 0.911017E-013
 0.911018E-013
 0.911018E-013
 0.911019E-013
 0.911019E-013
 0.911020E-013
 0.911020E-013
 0.911020E-013
 0.911020E-013
 0.911020E-013
 0.911020E-013
 0.911020E-013
 0.911020E-013
 0.911020E-013
 0.911020E-013
 0.911019E-013
 0.911019E-013
 0.911018E-013
 0.911018E-013
 0.911017E-013
 0.911016E-013
 0.911015E-013
 0.911015E-013
 0.911014E-013
 0.911013E-013
 0.911012E-013
 0.911011E-013
 0.911010E-013
 0.911009E-013
 0.911007E-013
 0.911006E-013
 0.911005E-013
 0.911004E-013
 0.911002E-013
 0.911001E-013
 0.911000E-013
 0.910998E-013
 0.910997E-013
 0.910995E-013
 0.910994E-013
 0.910993E-013
 0.910991E-013
 0.910990E-013
 0.910988E-013
 0.910987E-013
 0.910985E-013
 0.910984E-013
 0.910982E-013
 0.910980E-013
 0.910979E-013
 0.910977E-013
 0.910976E-013
 0.910974E-013
 0.910973E-013
 0.910971E-013
 0.910970E-013
 0.910968E-013
 0.910966E-013
 0.910965E-013
 0.910963E-013
 0.910962E-013
 0.910960E-013
 0.910958E-013
 0.910957E-013
 0.910955E-013
 0.910954E-013
 0.910952E-013
 0.910950E-013
 0.910948E-013
 0.910956E-013
 0.910880E-013
 0.911336E-013
 0.909129E-013
 0.916815E-013
 0.917843E-013
 0.908795E-013
 0.911403E-013
 0.910860E-013
 0.910948E-013
 0.910936E-013
 0.910937E-013
 0.910937E-013
 0.910936E-013
 0.910936E-013
 0.910936E-013
 0.910936E-013
 0.910936E-013
 0.910936E-013
 0.910935E-013
 0.910935E-013
 0.910935E-013
 0.910935E-013
 0.910935E-013
 0.910935E-013
 0.910934E-013
 0.910934E-013
 0.910934E-013
 0.910934E-013
 0.910934E-013
 0.910934E-013
 0.910934E-013
 0.910934E-013
 0.910934E-013
 0.910934E-013
 0.910934E-013
 0.910934E-013
 0.910933E-013
 0.910933E-013
 0.910933E-013
 0.910934E-013
 0.910934E-013
 0.910934E-013
 0.910934E-013
 0.910934E-013
 0.910934E-013
 0.910934E-013
 0.910934E-013
 0.910934E-013
 0.910934E-013
 0.910934E-013
 0.910935E-013
 0.910935E-013
 0.910935E-013
 0.910935E-013
 0.910935E-013
 0.910935E-013
 0.910935E-013
 0.910935E-013
 0.910936E-013
 0.910936E-013
 0.910936E-013
 0.910936E-013
 0.910936E-013
 0.910936E-013
 0.910936E-013
 0.910936E-013
 0.910936E-013
 0.910936E-013
 0.910936E-013
 0.910936E-013
 0.910936E-013
 0.910936E-013
 0.910936E-013
 0.910936E-013
 0.910936E-013
 0.910936E-013
 0.910936E-013
 0.910936E-013
 0.910936E-013
 0.910935E-013
 0.910935E-013
 0.910935E-013
 0.910935E-013
 0.910935E-013
 0.910935E-013
 0.910935E-013
 0.910934E-013
 0.910934E-013
 0.910934E-013
 0.910934E-013
 0.910934E-013
 0.910934E-013
 0.910934E-013
 0.910934E-013
 0.910934E-013
 0.910934E-013
 0.910934E-013
 0.910934E-013
 0.910934E-013
 0.910934E-013
 0.910934E-013
 0.910934E-013
 0.910934E-013
 0.910934E-013
 0.910934E-013
 0.910934E-013
 0.910934E-013
 0.910934E-013
 0.910934E-013
 0.910934E-013
 0.910934E-013
 0.910935E-013
 0.910935E-013
 0.910935E-013
 0.910935E-013
 0.910935E-013
 0.910935E-013
 0.910935E-013
 0.910936E-013
 0.910936E-013
 0.910936E-013
 0.910936E-013
 0.910936E-013
 0.910937E-013
 0.910937E-013
 0.910937E-013
 0.910936E-013
 0.910948E-013
 0.910860E-013
 0.911403E-013
 0.908795E-013
 0.917842E-013
 0.918871E-013
 0.908466E-013
 0.911476E-013
 0.910849E-013
 0.910950E-013
 0.910937E-013
 0.910938E-013
 0.910938E-013
 0.910938E-013
 0.910938E-013
 0.910938E-013
 0.910938E-013
 0.910938E-013
 0.910938E-013
 0.910938E-013
 0.910939E-013
 0.910939E-013
 0.910939E-013
 0.910939E-013
 0.910939E-013
 0.910939E-013
 0.910939E-013
 0.910939E-013
 0.910939E-013
 0.910939E-013
 0.910939E-013
 0.910939E-013
 0.910939E-013
 0.910940E-013
 0.910940E-013
 0.910940E-013
 0.910940E-013
 0.910940E-013
 0.910940E-013
 0.910941E-013
 0.910941E-013
 0.910941E-013
 0.910941E-013
 0.910941E-013
 0.910942E-013
 0.910942E-013
 0.910942E-013
 0.910943E-013
 0.910943E-013
 0.910943E-013
 0.910943E-013
 0.910944E-013
 0.910944E-013
 0.910944E-013
 0.910945E-013
 0.910945E-013
 0.910945E-013
 0.910945E-013
 0.910946E-013
 0.910946E-013
 0.910946E-013
 0.910946E-013
 0.910947E-013
 0.910947E-013
 0.910947E-013
 0.910947E-013
 0.910947E-013
 0.910947E-013
 0.910947E-013
 0.910947E-013
 0.910947E-013
 0.910947E-013
 0.910947E-013
 0.910947E-013
 0.910947E-013
 0.910947E-013
 0.910946E-013
 0.910946E-013
 0.910946E-013
 0.910946E-013
 0.910946E-013
 0.910945E-013
 0.910945E-013
 0.910945E-013
 0.910944E-013
 0.910944E-013
 0.910944E-013
 0.910944E-013
 0.910943E-013
 0.910943E-013
 0.910943E-013
 0.910942E-013
 0.910942E-013
 0.910942E-013
 0.910942E-013
 0.910941E-013
 0.910941E-013
 0.910941E-013
 0.910941E-013
 0.910940E-013
 0.910940E-013
 0.910940E-013
 0.910940E-013
 0.910940E-013
 0.910940E-013
 0.910939E-013
 0.910939E-013
 0.910939E-013
 0.910939E-013
 0.910939E-013
 0.910939E-013
 0.910939E-013
 0.910939E-013
 0.910939E-013
 0.910939E-013
 0.910939E-013
 0.910939E-013
 0.910939E-013
 0.910939E-013
 0.910939E-013
 0.910939E-013
 0.910938E-013
 0.910938E-013
 0.910938E-013
 0.910938E-013
 0.910938E-013
 0.910939E-013
 0.910937E-013
 0.910950E-013
 0.910849E-013
 0.911476E-013
 0.908467E-013
 0.918870E-013
 0.919896E-013
 0.908138E-013
 0.911548E-013
 0.910837E-013
 0.910952E-013
 0.910937E-013
 0.910938E-013
 0.910938E-013
 0.910938E-013
 0.910938E-013
 0.910938E-013
 0.910938E-013
 0.910938E-013
 0.910938E-013
 0.910938E-013
 0.910938E-013
 0.910938E-013
 0.910938E-013
 0.910938E-013
 0.910938E-013
 0.910938E-013
 0.910938E-013
 0.910938E-013
 0.910939E-013
 0.910939E-013
 0.910939E-013
 0.910939E-013
 0.910939E-013
 0.910939E-013
 0.910939E-013
 0.910939E-013
 0.910940E-013
 0.910940E-013
 0.910940E-013
 0.910940E-013
 0.910941E-013
 0.910941E-013
 0.910941E-013
 0.910941E-013
 0.910942E-013
 0.910942E-013
 0.910942E-013
 0.910943E-013
 0.910943E-013
 0.910943E-013
 0.910944E-013
 0.910944E-013
 0.910944E-013
 0.910945E-013
 0.910945E-013
 0.910945E-013
 0.910946E-013
 0.910946E-013
 0.910946E-013
 0.910946E-013
 0.910947E-013
 0.910947E-013
 0.910947E-013
 0.910947E-013
 0.910948E-013
 0.910948E-013
 0.910948E-013
 0.910948E-013
 0.910948E-013
 0.910948E-013
 0.910948E-013
 0.910948E-013
 0.910948E-013
 0.910948E-013
 0.910947E-013
 0.910947E-013
 0.910947E-013
 0.910947E-013
 0.910947E-013
 0.910946E-013
 0.910946E-013
 0.910946E-013
 0.910945E-013
 0.910945E-013
 0.910945E-013
 0.910944E-013
 0.910944E-013
 0.910944E-013
 0.910943E-013
 0.910943E-013
 0.910943E-013
 0.910942E-013
 0.910942E-013
 0.910942E-013
 0.910941E-013
 0.910941E-013
 0.910941E-013
 0.910941E-013
 0.910940E-013
 0.910940E-013
 0.910940E-013
 0.910940E-013
 0.910940E-013
 0.910939E-013
 0.910939E-013
 0.910939E-013
 0.910939E-013
 0.910939E-013
 0.910939E-013
 0.910939E-013
 0.910939E-013
 0.910939E-013
 0.910938E-013
 0.910938E-013
 0.910938E-013
 0.910938E-013
 0.910938E-013
 0.910938E-013
 0.910938E-013
 0.910938E-013
 0.910938E-013
 0.910938E-013
 0.910938E-013
 0.910938E-013
 0.910938E-013
 0.910938E-013
 0.910938E-013
 0.910937E-013
 0.910952E-013
 0.910837E-013
 0.911548E-013
 0.908139E-013
 0.919895E-013
 0.920919E-013
 0.907811E-013
 0.911620E-013
 0.910825E-013
 0.910953E-013
 0.910936E-013
 0.910938E-013
 0.910938E-013
 0.910938E-013
 0.910938E-013
 0.910938E-013
 0.910938E-013
 0.910938E-013
 0.910938E-013
 0.910938E-013
 0.910938E-013
 0.910938E-013
 0.910938E-013
 0.910938E-013
 0.910938E-013
 0.910938E-013
 0.910939E-013
 0.910939E-013
 0.910939E-013
 0.910939E-013
 0.910939E-013
 0.910939E-013
 0.910939E-013
 0.910939E-013
 0.910940E-013
 0.910940E-013
 0.910940E-013
 0.910940E-013
 0.910940E-013
 0.910941E-013
 0.910941E-013
 0.910941E-013
 0.910942E-013
 0.910942E-013
 0.910942E-013
 0.910943E-013
 0.910943E-013
 0.910944E-013
 0.910944E-013
 0.910944E-013
 0.910945E-013
 0.910945E-013
 0.910946E-013
 0.910946E-013
 0.910946E-013
 0.910947E-013
 0.910947E-013
 0.910947E-013
 0.910948E-013
 0.910948E-013
 0.910948E-013
 0.910949E-013
 0.910949E-013
 0.910949E-013
 0.910949E-013
 0.910950E-013
 0.910950E-013
 0.910950E-013
 0.910950E-013
 0.910950E-013
 0.910950E-013
 0.910950E-013
 0.910950E-013
 0.910949E-013
 0.910949E-013
 0.910949E-013
 0.910949E-013
 0.910949E-013
 0.910948E-013
 0.910948E-013
 0.910948E-013
 0.910947E-013
 0.910947E-013
 0.910946E-013
 0.910946E-013
 0.910946E-013
 0.910945E-013
 0.910945E-013
 0.910944E-013
 0.910944E-013
 0.910944E-013
 0.910943E-013
 0.910943E-013
 0.910942E-013
 0.910942E-013
 0.910942E-013
 0.910941E-013
 0.910941E-013
 0.910941E-013
 0.910941E-013
 0.910940E-013
 0.910940E-013
 0.910940E-013
 0.910940E-013
 0.910940E-013
 0.910939E-013
 0.910939E-013
 0.910939E-013
 0.910939E-013
 0.910939E-013
 0.910939E-013
 0.910939E-013
 0.910939E-013
 0.910939E-013
 0.910938E-013
 0.910938E-013
 0.910938E-013
 0.910938E-013
 0.910938E-013
 0.910938E-013
 0.910938E-013
 0.910938E-013
 0.910938E-013
 0.910938E-013
 0.910938E-013
 0.910938E-013
 0.910938E-013
 0.910937E-013
 0.910954E-013
 0.910825E-013
 0.911620E-013
 0.907812E-013
 0.920918E-013
 0.921940E-013
 0.907485E-013
 0.911692E-013
 0.910813E-013
 0.910955E-013
 0.910936E-013
 0.910938E-013
 0.910938E-013
 0.910938E-013
 0.910938E-013
 0.910938E-013
 0.910938E-013
 0.910938E-013
 0.910938E-013
 0.910938E-013
 0.910938E-013
 0.910938E-013
 0.910938E-013
 0.910938E-013
 0.910938E-013
 0.910939E-013
 0.910939E-013
 0.910939E-013
 0.910939E-013
 0.910939E-013
 0.910939E-013
 0.910939E-013
 0.910939E-013
 0.910940E-013
 0.910940E-013
 0.910940E-013
 0.910940E-013
 0.910941E-013
 0.910941E-013
 0.910941E-013
 0.910942E-013
 0.910942E-013
 0.910942E-013
 0.910943E-013
 0.910943E-013
 0.910944E-013
 0.910944E-013
 0.910945E-013
 0.910945E-013
 0.910945E-013
 0.910946E-013
 0.910946E-013
 0.910947E-013
 0.910947E-013
 0.910948E-013
 0.910948E-013
 0.910949E-013
 0.910949E-013
 0.910950E-013
 0.910950E-013
 0.910950E-013
 0.910951E-013
 0.910951E-013
 0.910951E-013
 0.910952E-013
 0.910952E-013
 0.910952E-013
 0.910952E-013
 0.910952E-013
 0.910952E-013
 0.910952E-013
 0.910952E-013
 0.910952E-013
 0.910952E-013
 0.910951E-013
 0.910951E-013
 0.910951E-013
 0.910950E-013
 0.910950E-013
 0.910950E-013
 0.910949E-013
 0.910949E-013
 0.910948E-013
 0.910948E-013
 0.910948E-013
 0.910947E-013
 0.910947E-013
 0.910946E-013
 0.910946E-013
 0.910945E-013
 0.910945E-013
 0.910944E-013
 0.910944E-013
 0.910943E-013
 0.910943E-013
 0.910942E-013
 0.910942E-013
 0.910942E-013
 0.910941E-013
 0.910941E-013
 0.910941E-013
 0.910940E-013
 0.910940E-013
 0.910940E-013
 0.910940E-013
 0.910940E-013
 0.910939E-013
 0.910939E-013
 0.910939E-013
 0.910939E-013
 0.910939E-013
 0.910939E-013
 0.910939E-013
 0.910939E-013
 0.910939E-013
 0.910938E-013
 0.910938E-013
 0.910938E-013
 0.910938E-013
 0.910938E-013
 0.910938E-013
 0.910938E-013
 0.910938E-013
 0.910938E-013
 0.910938E-013
 0.910938E-013
 0.910939E-013
 0.910936E-013
 0.910955E-013
 0.910813E-013
 0.911692E-013
 0.907486E-013
 0.921938E-013
 0.922958E-013
 0.907160E-013
 0.911764E-013
 0.910801E-013
 0.910957E-013
 0.910936E-013
 0.910938E-013
 0.910938E-013
 0.910938E-013
 0.910938E-013
 0.910938E-013
 0.910938E-013
 0.910938E-013
 0.910938E-013
 0.910938E-013
 0.910938E-013
 0.910938E-013
 0.910938E-013
 0.910938E-013
 0.910939E-013
 0.910939E-013
 0.910939E-013
 0.910939E-013
 0.910939E-013
 0.910939E-013
 0.910939E-013
 0.910940E-013
 0.910940E-013
 0.910940E-013
 0.910940E-013
 0.910941E-013
 0.910941E-013
 0.910941E-013
 0.910942E-013
 0.910942E-013
 0.910942E-013
 0.910943E-013
 0.910943E-013
 0.910944E-013
 0.910944E-013
 0.910945E-013
 0.910945E-013
 0.910946E-013
 0.910946E-013
 0.910947E-013
 0.910947E-013
 0.910948E-013
 0.910949E-013
 0.910949E-013