# vtk DataFile Version 3.0
Solution data
ASCII
DATASET STRUCTURED_GRID
DIMENSIONS 128 128 1
POINTS 16384  double
      0.000004      0.000004      0.000000
      0.000012      0.000004      0.000000
      0.000020      0.000004      0.000000
      0.000027      0.000004      0.000000
      0.000035      0.000004      0.000000
      0.000043      0.000004      0.000000
      0.000051      0.000004      0.000000
      0.000059      0.000004      0.000000
      0.000066      0.000004      0.000000
      0.000074      0.000004      0.000000
      0.000082      0.000004      0.000000
      0.000090      0.000004      0.000000
      0.000098      0.000004      0.000000
      0.000105      0.000004      0.000000
      0.000113      0.000004      0.000000
      0.000121      0.000004      0.000000
      0.000129      0.000004      0.000000
      0.000137      0.000004      0.000000
      0.000145      0.000004      0.000000
      0.000152      0.000004      0.000000
      0.000160      0.000004      0.000000
      0.000168      0.000004      0.000000
      0.000176      0.000004      0.000000
      0.000184      0.000004      0.000000
      0.000191      0.000004      0.000000
      0.000199      0.000004      0.000000
      0.000207      0.000004      0.000000
      0.000215      0.000004      0.000000
      0.000223      0.000004      0.000000
      0.000230      0.000004      0.000000
      0.000238      0.000004      0.000000
      0.000246      0.000004      0.000000
      0.000254      0.000004      0.000000
      0.000262      0.000004      0.000000
      0.000270      0.000004      0.000000
      0.000277      0.000004      0.000000
      0.000285      0.000004      0.000000
      0.000293      0.000004      0.000000
      0.000301      0.000004      0.000000
      0.000309      0.000004      0.000000
      0.000316      0.000004      0.000000
      0.000324      0.000004      0.000000
      0.000332      0.000004      0.000000
      0.000340      0.000004      0.000000
      0.000348      0.000004      0.000000
      0.000355      0.000004      0.000000
      0.000363      0.000004      0.000000
      0.000371      0.000004      0.000000
      0.000379      0.000004      0.000000
      0.000387      0.000004      0.000000
      0.000395      0.000004      0.000000
      0.000402      0.000004      0.000000
      0.000410      0.000004      0.000000
      0.000418      0.000004      0.000000
      0.000426      0.000004      0.000000
      0.000434      0.000004      0.000000
      0.000441      0.000004      0.000000
      0.000449      0.000004      0.000000
      0.000457      0.000004      0.000000
      0.000465      0.000004      0.000000
      0.000473      0.000004      0.000000
      0.000480      0.000004      0.000000
      0.000488      0.000004      0.000000
      0.000496      0.000004      0.000000
      0.000504      0.000004      0.000000
      0.000512      0.000004      0.000000
      0.000520      0.000004      0.000000
      0.000527      0.000004      0.000000
      0.000535      0.000004      0.000000
      0.000543      0.000004      0.000000
      0.000551      0.000004      0.000000
      0.000559      0.000004      0.000000
      0.000566      0.000004      0.000000
      0.000574      0.000004      0.000000
      0.000582      0.000004      0.000000
      0.000590      0.000004      0.000000
      0.000598      0.000004      0.000000
      0.000605      0.000004      0.000000
      0.000613      0.000004      0.000000
      0.000621      0.000004      0.000000
      0.000629      0.000004      0.000000
      0.000637      0.000004      0.000000
      0.000645      0.000004      0.000000
      0.000652      0.000004      0.000000
      0.000660      0.000004      0.000000
      0.000668      0.000004      0.000000
      0.000676      0.000004      0.000000
      0.000684      0.000004      0.000000
      0.000691      0.000004      0.000000
      0.000699      0.000004      0.000000
      0.000707      0.000004      0.000000
      0.000715      0.000004      0.000000
      0.000723      0.000004      0.000000
      0.000730      0.000004      0.000000
      0.000738      0.000004      0.000000
      0.000746      0.000004      0.000000
      0.000754      0.000004      0.000000
      0.000762      0.000004      0.000000
      0.000770      0.000004      0.000000
      0.000777      0.000004      0.000000
      0.000785      0.000004      0.000000
      0.000793      0.000004      0.000000
      0.000801      0.000004      0.000000
      0.000809      0.000004      0.000000
      0.000816      0.000004      0.000000
      0.000824      0.000004      0.000000
      0.000832      0.000004      0.000000
      0.000840      0.000004      0.000000
      0.000848      0.000004      0.000000
      0.000855      0.000004      0.000000
      0.000863      0.000004      0.000000
      0.000871      0.000004      0.000000
      0.000879      0.000004      0.000000
      0.000887      0.000004      0.000000
      0.000895      0.000004      0.000000
      0.000902      0.000004      0.000000
      0.000910      0.000004      0.000000
      0.000918      0.000004      0.000000
      0.000926      0.000004      0.000000
      0.000934      0.000004      0.000000
      0.000941      0.000004      0.000000
      0.000949      0.000004      0.000000
      0.000957      0.000004      0.000000
      0.000965      0.000004      0.000000
      0.000973      0.000004      0.000000
      0.000980      0.000004      0.000000
      0.000988      0.000004      0.000000
      0.000996      0.000004      0.000000
      0.000004      0.000012      0.000000
      0.000012      0.000012      0.000000
      0.000020      0.000012      0.000000
      0.000027      0.000012      0.000000
      0.000035      0.000012      0.000000
      0.000043      0.000012      0.000000
      0.000051      0.000012      0.000000
      0.000059      0.000012      0.000000
      0.000066      0.000012      0.000000
      0.000074      0.000012      0.000000
      0.000082      0.000012      0.000000
      0.000090      0.000012      0.000000
      0.000098      0.000012      0.000000
      0.000105      0.000012      0.000000
      0.000113      0.000012      0.000000
      0.000121      0.000012      0.000000
      0.000129      0.000012      0.000000
      0.000137      0.000012      0.000000
      0.000145      0.000012      0.000000
      0.000152      0.000012      0.000000
      0.000160      0.000012      0.000000
      0.000168      0.000012      0.000000
      0.000176      0.000012      0.000000
      0.000184      0.000012      0.000000
      0.000191      0.000012      0.000000
      0.000199      0.000012      0.000000
      0.000207      0.000012      0.000000
      0.000215      0.000012      0.000000
      0.000223      0.000012      0.000000
      0.000230      0.000012      0.000000
      0.000238      0.000012      0.000000
      0.000246      0.000012      0.000000
      0.000254      0.000012      0.000000
      0.000262      0.000012      0.000000
      0.000270      0.000012      0.000000
      0.000277      0.000012      0.000000
      0.000285      0.000012      0.000000
      0.000293      0.000012      0.000000
      0.000301      0.000012      0.000000
      0.000309      0.000012      0.000000
      0.000316      0.000012      0.000000
      0.000324      0.000012      0.000000
      0.000332      0.000012      0.000000
      0.000340      0.000012      0.000000
      0.000348      0.000012      0.000000
      0.000355      0.000012      0.000000
      0.000363      0.000012      0.000000
      0.000371      0.000012      0.000000
      0.000379      0.000012      0.000000
      0.000387      0.000012      0.000000
      0.000395      0.000012      0.000000
      0.000402      0.000012      0.000000
      0.000410      0.000012      0.000000
      0.000418      0.000012      0.000000
      0.000426      0.000012      0.000000
      0.000434      0.000012      0.000000
      0.000441      0.000012      0.000000
      0.000449      0.000012      0.000000
      0.000457      0.000012      0.000000
      0.000465      0.000012      0.000000
      0.000473      0.000012      0.000000
      0.000480      0.000012      0.000000
      0.000488      0.000012      0.000000
      0.000496      0.000012      0.000000
      0.000504      0.000012      0.000000
      0.000512      0.000012      0.000000
      0.000520      0.000012      0.000000
      0.000527      0.000012      0.000000
      0.000535      0.000012      0.000000
      0.000543      0.000012      0.000000
      0.000551      0.000012      0.000000
      0.000559      0.000012      0.000000
      0.000566      0.000012      0.000000
      0.000574      0.000012      0.000000
      0.000582      0.000012      0.000000
      0.000590      0.000012      0.000000
      0.000598      0.000012      0.000000
      0.000605      0.000012      0.000000
      0.000613      0.000012      0.000000
      0.000621      0.000012      0.000000
      0.000629      0.000012      0.000000
      0.000637      0.000012      0.000000
      0.000645      0.000012      0.000000
      0.000652      0.000012      0.000000
      0.000660      0.000012      0.000000
      0.000668      0.000012      0.000000
      0.000676      0.000012      0.000000
      0.000684      0.000012      0.000000
      0.000691      0.000012      0.000000
      0.000699      0.000012      0.000000
      0.000707      0.000012      0.000000
      0.000715      0.000012      0.000000
      0.000723      0.000012      0.000000
      0.000730      0.000012      0.000000
      0.000738      0.000012      0.000000
      0.000746      0.000012      0.000000
      0.000754      0.000012      0.000000
      0.000762      0.000012      0.000000
      0.000770      0.000012      0.000000
      0.000777      0.000012      0.000000
      0.000785      0.000012      0.000000
[...]
POINT_DATA 16384
SCALARS rhoe double
LOOKUP_TABLE default
 0.915240E-013
 0.913116E-013
 0.915087E-013
 0.915888E-013
 0.916953E-013
 0.917965E-013
 0.918983E-013
 0.919997E-013
 0.921009E-013
 0.922019E-013
 0.923025E-013
 0.924029E-013
 0.925029E-013
 0.926026E-013
 0.927020E-013
 0.928011E-013
 0.928997E-013
 0.929979E-013
 0.930957E-013
 0.931930E-013
 0.932898E-013
 0.933860E-013
 0.934816E-013
 0.935766E-013
 0.936708E-013
 0.937643E-013
 0.938570E-013
 0.939488E-013
 0.940397E-013
 0.941296E-013
 0.942184E-013
 0.943060E-013
 0.943924E-013
 0.944774E-013
 0.945611E-013
 0.946433E-013
 0.947238E-013
 0.948027E-013
 0.948798E-013
 0.949551E-013
 0.950283E-013
 0.950995E-013
 0.951685E-013
 0.952353E-013
 0.952996E-013
 0.953615E-013
 0.954208E-013
 0.954775E-013
 0.955314E-013
 0.955824E-013
 0.956305E-013
 0.956755E-013
 0.957174E-013
 0.957561E-013
 0.957916E-013
 0.958237E-013
 0.958524E-013
 0.958776E-013
 0.958993E-013
 0.959175E-013
 0.959321E-013
 0.959431E-013
 0.959504E-013
 0.959540E-013
 0.959540E-013
 0.959504E-013
 0.959430E-013
 0.959321E-013
 0.959175E-013
 0.958993E-013
 0.958776E-013
 0.958523E-013
 0.958236E-013
 0.957915E-013
 0.957561E-013
 0.957173E-013
 0.956754E-013
 0.956304E-013
 0.955823E-013
 0.955313E-013
 0.954774E-013
 0.954208E-013
 0.953614E-013
 0.952995E-013
 0.952352E-013
 0.951684E-013
 0.950994E-013
 0.950282E-013
 0.949550E-013
 0.948797E-013
 0.948026E-013
 0.947237E-013
 0.946431E-013
 0.945610E-013
 0.944773E-013
 0.943923E-013
 0.943059E-013
 0.942183E-013
 0.941295E-013
 0.940396E-013
 0.939487E-013
 0.938569E-013
 0.937642E-013
 0.936707E-013
 0.935764E-013
 0.934815E-013
 0.933859E-013
 0.932896E-013
 0.931929E-013
 0.930956E-013
 0.929978E-013
 0.928996E-013
 0.928010E-013
 0.927019E-013
 0.926025E-013
 0.925028E-013
 0.924028E-013
 0.923024E-013
 0.922018E-013
 0.921009E-013
 0.919997E-013
 0.918982E-013
 0.917964E-013
 0.916952E-013
 0.915888E-013
 0.915086E-013
 0.913116E-013
 0.915239E-013
 0.913116E-013
 0.908828E-013
 0.909743E-013
 0.908996E-013
 0.908656E-013
 0.908238E-013
 0.907833E-013
 0.907428E-013
 0.907024E-013
 0.906622E-013
 0.906221E-013
 0.905820E-013
 0.905422E-013
 0.905024E-013
 0.904629E-013
 0.904234E-013
 0.903842E-013
 0.903451E-013
 0.903062E-013
 0.902675E-013
 0.902290E-013
 0.901908E-013
 0.901527E-013
 0.901150E-013
 0.900776E-013
 0.900404E-013
 0.900036E-013
 0.899672E-013
 0.899311E-013
 0.898954E-013
 0.898602E-013
 0.898255E-013
 0.897912E-013
 0.897575E-013
 0.897243E-013
 0.896917E-013
 0.896598E-013
 0.896286E-013
 0.895980E-013
 0.895682E-013
 0.895392E-013
 0.895110E-013
 0.894837E-013
 0.894573E-013
 0.894318E-013
 0.894073E-013
 0.893839E-013
 0.893615E-013
 0.893402E-013
 0.893200E-013
 0.893010E-013
 0.892832E-013
 0.892666E-013
 0.892513E-013
 0.892373E-013
 0.892246E-013
 0.892133E-013
 0.892033E-013
 0.891947E-013
 0.891875E-013
 0.891818E-013
 0.891775E-013
 0.891746E-013
 0.891731E-013
 0.891731E-013
 0.891746E-013
 0.891775E-013
 0.891818E-013
 0.891876E-013
 0.891947E-013
 0.892033E-013
 0.892133E-013
 0.892247E-013
 0.892373E-013
 0.892514E-013
 0.892667E-013
 0.892832E-013
 0.893010E-013
 0.893201E-013
 0.893402E-013
 0.893615E-013
 0.893839E-013
 0.894074E-013
 0.894319E-013
 0.894574E-013
 0.894838E-013
 0.895111E-013
 0.895393E-013
 0.895683E-013
 0.895981E-013
 0.896287E-013
 0.896599E-013
 0.896918E-013
 0.897244E-013
 0.897576E-013
 0.897913E-013
 0.898256E-013
 0.898603E-013
 0.898955E-013
 0.899312E-013
 0.899673E-013
 0.900037E-013
 0.900405E-013
 0.900777E-013
 0.901151E-013
 0.901529E-013
 0.901909E-013
 0.902291E-013
 0.902676E-013
 0.903063E-013
 0.903452E-013
 0.903843E-013
 0.904235E-013
 0.904629E-013
 0.905025E-013
 0.905423E-013
 0.905821E-013
 0.906221E-013
 0.906622E-013
 0.907025E-013
 0.907429E-013
 0.907834E-013
 0.908238E-013
 0.908656E-013
 0.908996E-013
 0.909743E-013
 0.908828E-013
 0.913116E-013
 0.915087E-013
 0.909743E-013
 0.911734E-013
 0.911367E-013
 0.911579E-013
 0.911677E-013
 0.911793E-013
 0.911907E-013
 0.912020E-013
 0.912133E-013
 0.912245E-013
 0.912357E-013
 0.912469E-013
 0.912580E-013
 0.912691E-013
 0.912802E-013
 0.912911E-013
 0.913021E-013
 0.913130E-013
 0.913238E-013
 0.913346E-013
 0.913453E-013
 0.913559E-013
 0.913665E-013
 0.913770E-013
 0.913874E-013
 0.913977E-013
 0.914079E-013
 0.914180E-013
 0.914280E-013
 0.914378E-013
 0.914475E-013
 0.914571E-013
 0.914666E-013
 0.914758E-013
 0.914849E-013
 0.914939E-013
 0.915026E-013
 0.915112E-013
 0.915195E-013
 0.915276E-013
 0.915355E-013
 0.915431E-013
 0.915505E-013
 0.915576E-013
 0.915645E-013
 0.915711E-013
 0.915773E-013
 0.915833E-013
 0.915889E-013
 0.915942E-013
 0.915992E-013
 0.916039E-013
 0.916081E-013
 0.916121E-013
 0.916156E-013
 0.916188E-013
 0.916216E-013
 0.916240E-013
 0.916260E-013
 0.916276E-013
 0.916288E-013
 0.916296E-013
 0.916300E-013
 0.916300E-013
 0.916296E-013
 0.916288E-013
 0.916276E-013
 0.916260E-013
 0.916240E-013
 0.916216E-013
 0.916188E-013
 0.916156E-013
 0.916120E-013
 0.916081E-013
 0.916038E-013
 0.915992E-013
 0.915942E-013
 0.915889E-013
 0.915833E-013
 0.915773E-013
 0.915710E-013
 0.915645E-013
 0.915576E-013
 0.915505E-013
 0.915431E-013
 0.915355E-013
 0.915276E-013
 0.915195E-013
 0.915111E-013
 0.915026E-013
 0.914938E-013
 0.914849E-013
 0.914758E-013
 0.914665E-013
 0.914571E-013
 0.914475E-013
 0.914378E-013
 0.914279E-013
 0.914179E-013
 0.914079E-013
 0.913977E-013
 0.913874E-013
 0.913770E-013
 0.913665E-013
 0.913559E-013
 0.913453E-013
 0.913346E-013
 0.913238E-013
 0.913130E-013
 0.913021E-013
 0.912911E-013
 0.912801E-013
 0.912691E-013
 0.912580E-013
 0.912469E-013
 0.912357E-013
 0.912245E-013
 0.912132E-013
 0.912020E-013
 0.911907E-013
 0.911793E-013
 0.911677E-013
 0.911579E-013
 0.911367E-013
 0.911734E-013
 0.909743E-013
 0.915086E-013
 0.915888E-013
 0.908996E-013
 0.911367E-013
 0.910722E-013
 0.910824E-013
 0.910778E-013
 0.910757E-013
 0.910732E-013
 0.910708E-013
 0.910684E-013
 0.910660E-013
 0.910636E-013
 0.910612E-013
 0.910588E-013
 0.910564E-013
 0.910540E-013
 0.910517E-013
 0.910493E-013
 0.910470E-013
 0.910447E-013
 0.910424E-013
 0.910401E-013
 0.910378E-013
 0.910355E-013
 0.910333E-013
 0.910311E-013
 0.910289E-013
 0.910267E-013
 0.910245E-013
 0.910224E-013
 0.910203E-013
 0.910182E-013
 0.910162E-013
 0.910142E-013
 0.910122E-013
 0.910103E-013
 0.910084E-013
 0.910065E-013
 0.910047E-013
 0.910029E-013
 0.910012E-013
 0.909995E-013
 0.909979E-013
 0.909963E-013
 0.909948E-013
 0.909934E-013
 0.909920E-013
 0.909907E-013
 0.909894E-013
 0.909882E-013
 0.909871E-013
 0.909860E-013
 0.909850E-013
 0.909841E-013
 0.909833E-013
 0.909826E-013
 0.909819E-013
 0.909813E-013
 0.909808E-013
 0.909804E-013
 0.909800E-013
 0.909798E-013
 0.909796E-013
 0.909795E-013
 0.909795E-013
 0.909796E-013
 0.909798E-013
 0.909800E-013
 0.909804E-013
 0.909808E-013
 0.909813E-013
 0.909819E-013
 0.909826E-013
 0.909833E-013
 0.909841E-013
 0.909851E-013
 0.909860E-013
 0.909871E-013
 0.909882E-013
 0.909894E-013
 0.909907E-013
 0.909920E-013
 0.909934E-013
 0.909948E-013
 0.909963E-013
 0.909979E-013
 0.909995E-013
 0.910012E-013
 0.910029E-013
 0.910047E-013
 0.910065E-013
 0.910084E-013
 0.910103E-013
 0.910122E-013
 0.910142E-013
 0.910162E-013
 0.910182E-013
 0.910203E-013
 0.910224E-013
 0.910246E-013
 0.910267E-013
 0.910289E-013
 0.910311E-013
 0.910333E-013
 0.910355E-013
 0.910378E-013
 0.910401E-013
 0.910424E-013
 0.910447E-013
 0.910470E-013
 0.910493E-013
 0.910517E-013
 0.910540E-013
 0.910564E-013
 0.910588E-013
 0.910612E-013
 0.910636E-013
 0.910660E-013
 0.910684E-013
 0.910708E-013
 0.910732E-013
 0.910757E-013
 0.910779E-013
 0.910824E-013
 0.910722E-013
 0.911367E-013
 0.908996E-013
 0.915888E-013
 0.916953E-013
 0.908656E-013
 0.911579E-013
 0.910824E-013
 0.910984E-013
 0.910962E-013
 0.910970E-013
 0.910974E-013
 0.910978E-013
 0.910982E-013
 0.910986E-013
 0.910991E-013
 0.910995E-013
 0.910999E-013
 0.911003E-013
 0.911007E-013
 0.911011E-013
 0.911015E-013
 0.911019E-013
 0.911023E-013
 0.911027E-013
 0.911031E-013
 0.911035E-013
 0.911039E-013
 0.911043E-013
 0.911047E-013
 0.911051E-013
 0.911055E-013
 0.911059E-013
 0.911062E-013
 0.911066E-013
 0.911070E-013
 0.911073E-013
 0.911077E-013
 0.911080E-013
 0.911084E-013
 0.911087E-013
 0.911090E-013
 0.911094E-013
 0.911097E-013
 0.911100E-013
 0.911103E-013
 0.911106E-013
 0.911109E-013
 0.911111E-013
 0.911114E-013
 0.911117E-013
 0.911119E-013
 0.911121E-013
 0.911123E-013
 0.911126E-013
 0.911127E-013
 0.911129E-013
 0.911131E-013
 0.911132E-013
 0.911134E-013
 0.911135E-013
 0.911136E-013
 0.911137E-013
 0.911138E-013
 0.911139E-013
 0.911139E-013
 0.911139E-013
 0.911139E-013
 0.911139E-013
 0.911139E-013
 0.911139E-013
 0.911139E-013
 0.911138E-013
 0.911137E-013
 0.911136E-013
 0.911135E-013
 0.911134E-013
 0.911132E-013
 0.911131E-013
 0.911129E-013
 0.911127E-013
 0.911126E-013
 0.911123E-013
 0.911121E-013
 0.911119E-013
 0.911117E-013
 0.911114E-013
 0.911111E-013
 0.911109E-013
 0.911106E-013
 0.911103E-013
 0.911100E-013
 0.911097E-013
 0.911094E-013
 0.911090E-013
 0.911087E-013
 0.911084E-013
 0.911080E-013
 0.911077E-013
 0.911073E-013
 0.911070E-013
 0.911066E-013
 0.911062E-013
 0.911059E-013
 0.911055E-013
 0.911051E-013
 0.911047E-013
 0.911043E-013
 0.911039E-013
 0.911035E-013
 0.911031E-013
 0.911027E-013
 0.911023E-013
 0.911019E-013
 0.911015E-013
 0.911011E-013
 0.911007E-013
 0.911003E-013
 0.910999E-013
 0.910995E-013
 0.910991E-013
 0.910986E-013
 0.910982E-013
 0.910978E-013
 0.910974E-013
 0.910970E-013
 0.910962E-013
 0.910984E-013
 0.910824E-013
 0.911579E-013
 0.908656E-013
 0.916952E-013
 0.917965E-013
 0.908238E-013
 0.911677E-013
 0.910778E-013
 0.910962E-013
 0.910930E-013
 0.910934E-013
 0.910933E-013
 0.910932E-013
 0.910932E-013
 0.910931E-013
 0.910931E-013
 0.910930E-013
 0.910929E-013
 0.910929E-013
 0.910928E-013
 0.910928E-013
 0.910927E-013
 0.910926E-013
 0.910926E-013
 0.910925E-013
 0.910925E-013
 0.910924E-013
 0.910924E-013
 0.910923E-013
 0.910923E-013
 0.910922E-013
 0.910922E-013
 0.910921E-013
 0.910921E-013
 0.910920E-013
 0.910920E-013
 0.910919E-013
 0.910919E-013
 0.910918E-013
 0.910918E-013
 0.910918E-013
 0.910917E-013
 0.910917E-013
 0.910916E-013
 0.910916E-013
 0.910916E-013
 0.910916E-013
 0.910915E-013
 0.910915E-013
 0.910915E-013
 0.910915E-013
 0.910914E-013
 0.910914E-013
 0.910914E-013
 0.910914E-013
 0.910914E-013
 0.910914E-013
 0.910913E-013
 0.910913E-013
 0.910913E-013
 0.910913E-013
 0.910913E-013
 0.910913E-013
 0.910913E-013
 0.910913E-013
 0.910913E-013
 0.910913E-013
 0.910913E-013
 0.910913E-013
 0.910913E-013
 0.910913E-013
 0.910913E-013
 0.910913E-013
 0.910913E-013
 0.910913E-013
 0.910913E-013
 0.910913E-013
 0.910913E-013
 0.910913E-013
 0.910914E-013
 0.910914E-013
 0.910914E-013
 0.910914E-013
 0.910914E-013
 0.910914E-013
 0.910915E-013
 0.910915E-013
 0.910915E-013
 0.910915E-013
 0.910916E-013
 0.910916E-013
 0.910916E-013
 0.910917E-013
 0.910917E-013
 0.910917E-013
 0.910918E-013
 0.910918E-013
 0.910918E-013
 0.910919E-013
 0.910919E-013
 0.910920E-013
 0.910920E-013
 0.910921E-013
 0.910921E-013
 0.910922E-013
 0.910922E-013
 0.910923E-013
 0.910923E-013
 0.910924E-013
 0.910924E-013
 0.910925E-013
 0.910925E-013
 0.910926E-013
 0.910927E-013
 0.910927E-013
 0.910928E-013
 0.910928E-013
 0.910929E-013
 0.910929E-013
 0.910930E-013
 0.910931E-013
 0.910931E-013
 0.910932E-013
 0.910933E-013
 0.910933E-013
 0.910934E-013
 0.910930E-013
 0.910962E-013
 0.910779E-013
 0.911677E-013
 0.908238E-013
 0.917964E-013
 0.918983E-013
 0.907833E-013
 0.911793E-013
 0.910757E-013
 0.910970E-013
 0.910934E-013
 0.910939E-013
 0.910939E-013
 0.910939E-013
 0.910939E-013
 0.910939E-013
 0.910939E-013
 0.910939E-013
 0.910939E-013
 0.910939E-013
 0.910939E-013
 0.910940E-013
 0.910940E-013
 0.910940E-013
 0.910940E-013
 0.910940E-013
 0.910940E-013
 0.910940E-013
 0.910940E-013
 0.910940E-013
 0.910940E-013
 0.910941E-013
 0.910941E-013
 0.910941E-013
 0.910941E-013
 0.910941E-013
 0.910941E-013
 0.910941E-013
 0.910942E-013
 0.910942E-013
 0.910942E-013
 0.910942E-013
 0.910942E-013
 0.910942E-013
 0.910943E-013
 0.910943E-013
 0.910943E-013
 0.910943E-013
 0.910943E-013
 0.910944E-013
 0.910944E-013
 0.910944E-013
 0.910944E-013
 0.910944E-013
 0.910944E-013
 0.910945E-013
 0.910945E-013
 0.910945E-013
 0.910945E-013
 0.910945E-013
 0.910945E-013
 0.910946E-013
 0.910946E-013
 0.910946E-013
 0.910946E-013
 0.910946E-013
 0.910946E-013
 0.910946E-013
 0.910946E-013
 0.910946E-013
 0.910946E-013
 0.910946E-013
 0.910946E-013
 0.910946E-013
 0.910946E-013
 0.910946E-013
 0.910946E-013
 0.910945E-013
 0.910945E-013
 0.910945E-013
 0.910945E-013
 0.910945E-013
 0.910945E-013
 0.910945E-013
 0.910944E-013
 0.910944E-013
 0.910944E-013
 0.910944E-013
 0.910944E-013
 0.910943E-013
 0.910943E-013
 0.910943E-013
 0.910943E-013
 0.910943E-013
 0.910942E-013
 0.910942E-013
 0.910942E-013
 0.910942E-013
 0.910942E-013
 0.910942E-013
 0.910941E-013
 0.910941E-013
 0.910941E-013
 0.910941E-013
 0.910941E-013
 0.910941E-013
 0.910941E-013
 0.910941E-013
 0.910940E-013
 0.910940E-013
 0.910940E-013
 0.910940E-013
 0.910940E-013
 0.910940E-013
 0.910940E-013
 0.910940E-013
 0.910940E-013
 0.910940E-013
 0.910939E-013
 0.910939E-013
 0.910939E-013
 0.910939E-013
 0.910939E-013
 0.910939E-013
 0.910939E-013
 0.910939E-013
 0.910939E-013
 0.910934E-013
 0.910970E-013
 0.910757E-013
 0.911793E-013
 0.907834E-013
 0.918982E-013
 0.919997E-013
 0.907428E-013
 0.911907E-013
 0.910732E-013
 0.910974E-013
 0.910933E-013
 0.910939E-013
 0.910938E-013
 0.910938E-013
 0.910938E-013
 0.910938E-013
 0.910938E-013
 0.910938E-013
 0.910938E-013
 0.910938E-013
 0.910938E-013
 0.910938E-013
 0.910938E-013
 0.910938E-013
 0.910938E-013
 0.910938E-013
 0.910938E-013
 0.910938E-013
 0.910938E-013
 0.910938E-013
 0.910938E-013
 0.910938E-013
 0.910938E-013
 0.910938E-013
 0.910939E-013
 0.910939E-013
 0.910939E-013
 0.910939E-013
 0.910939E-013
 0.910939E-013
 0.910939E-013
 0.910939E-013
 0.910939E-013
 0.910940E-013
 0.910940E-013
 0.910940E-013
 0.910940E-013
 0.910940E-013
 0.910940E-013
 0.910940E-013
 0.910941E-013
 0.910941E-013
 0.910941E-013
 0.910941E-013
 0.910941E-013
 0.910941E-013
 0.910942E-013
 0.910942E-013
 0.910942E-013
 0.910942E-013
 0.910942E-013
 0.910942E-013
 0.910942E-013
 0.910943E-013
 0.910943E-013
 0.910943E-013
 0.910943E-013
 0.910943E-013
 0.910943E-013
 0.910943E-013
 0.910943E-013
 0.910943E-013
 0.910943E-013
 0.910943E-013
 0.910943E-013
 0.910942E-013
 0.910942E-013
 0.910942E-013
 0.910942E-013
 0.910942E-013
 0.910942E-013
 0.910942E-013
 0.910942E-013
 0.910941E-013
 0.910941E-013
 0.910941E-013
 0.910941E-013
 0.910941E-013
 0.910941E-013
 0.910940E-013
 0.910940E-013
 0.910940E-013
 0.910940E-013
 0.910940E-013
 0.910940E-013
 0.910939E-013
 0.910939E-013
 0.910939E-013
 0.910939E-013
 0.910939E-013
 0.910939E-013
 0.910939E-013
 0.910939E-013
 0.910939E-013
 0.910939E-013
 0.910938E-013
 0.910938E-013
 0.910938E-013
 0.910938E-013
 0.910938E-013
 0.910938E-013
 0.910938E-013
 0.910938E-013
 0.910938E-013
 0.910938E-013
 0.910938E-013
 0.910938E-013
 0.910938E-013
 0.910938E-013
 0.910938E-013
 0.910938E-013
 0.910938E-013
 0.910938E-013
 0.910938E-013
 0.910938E-013
 0.910938E-013
 0.910939E-013
 0.910933E-013
 0.910974E-013
 0.910732E-013
 0.911907E-013
 0.907429E-013
 0.919997E-013
 0.921009E-013
 0.907024E-013
 0.912020E-013
 0.910708E-013
 0.910978E-013
 0.910932E-013
 0.910939E-013
 0.910938E-013
 0.910938E-013
 0.910938E-013
 0.910938E-013
 0.910938E-013
 0.910938E-013
 0.910938E-013
 0.910938E-013
 0.910938E-013
 0.910938E-013
 0.910938E-013
 0.910938E-013
 0.910938E-013
 0.910938E-013
 0.910938E-013
 0.910938E-013
 0.910938E-013
 0.910939E-013
 0.910939E-013
 0.910939E-013
 0.910939E-013
 0.910939E-013
 0.910939E-013
 0.910939E-013
 0.910939E-013
 0.910939E-013
 0.910939E-013
 0.910940E-013
 0.910940E-013
 0.910940E-013
 0.910940E-013
 0.910940E-013
 0.910940E-013
 0.910941E-013
 0.910941E-013
 0.910941E-013
 0.910941E-013
 0.910941E-013
 0.910942E-013
 0.910942E-013
 0.910942E-013
 0.910942E-013
 0.910942E-013
 0.910943E-013
 0.910943E-013
 0.910943E-013
 0.910943E-013
 0.910943E-013
 0.910944E-013
 0.910944E-013
 0.910944E-013
 0.910944E-013
 0.910944E-013
 0.910944E-013
 0.910944E-013
 0.910944E-013
 0.910944E-013
 0.910944E-013
 0.910944E-013
 0.910944E-013
 0.910944E-013
 0.910944E-013
 0.910944E-013
 0.910944E-013
 0.910944E-013
 0.910944E-013
 0.910943E-013
 0.910943E-013
 0.910943E-013
 0.910943E-013
 0.910943E-013
 0.910942E-013
 0.910942E-013
 0.910942E-013
 0.910942E-013
 0.910942E-013
 0.910941E-013
 0.910941E-013
 0.910941E-013
 0.910941E-013
 0.910941E-013
 0.910940E-013
 0.910940E-013
 0.910940E-013
 0.910940E-013
 0.910940E-013
 0.910940E-013
 0.910939E-013
 0.910939E-013
 0.910939E-013
 0.910939E-013
 0.910939E-013
 0.910939E-013
 0.910939E-013
 0.910939E-013
 0.910939E-013
 0.910939E-013
 0.910939E-013
 0.910939E-013
 0.910938E-013
 0.910938E-013
 0.910938E-013
 0.910938E-013
 0.910938E-013
 0.910938E-013
 0.910938E-013
 0.910938E-013
 0.910938E-013
 0.910938E-013
 0.910938E-013
 0.910938E-013
 0.910938E-013
 0.910938E-013
 0.910938E-013
 0.910939E-013
 0.910933E-013
 0.910978E-013
 0.910708E-013
 0.912020E-013
 0.907025E-013
 0.921008E-013
 0.922019E-013
 0.906622E-013
 0.912133E-013
 0.910684E-013
 0.910982E-013
 0.910932E-013
 0.910939E-013
 0.910938E-013
 0.910938E-013
 0.910938E-013
 0.910938E-013
 0.910938E-013
 0.910938E-013
 0.910938E-013
 0.910938E-013
 0.910938E-013
 0.910938E-013
 0.910938E-013
 0.910938E-013
 0.910938E-013
 0.910938E-013
 0.910938E-013
 0.910938E-013
 0.910939E-013
 0.910939E-013
 0.910939E-013
 0.910939E-013
 0.910939E-013
 0.910939E-013
 0.910939E-013
 0.910939E-013
 0.910939E-013
 0.910939E-013
 0.910940E-013
 0.910940E-013
 0.910940E-013
 0.910940E-013
 0.910940E-013
 0.910941E-013
 0.910941E-013
 0.910941E-013
 0.910941E-013
 0.910941E-013
 0.910942E-013
 0.910942E-013
 0.910942E-013
 0.910942E-013
 0.910943E-013
 0.910943E-013
 0.910943E-013
 0.910943E-013
 0.910944E-013
 0.910944E-013
 0.910944E-013
 0.910944E-013
 0.910944E-013
 0.910945E-013
 0.910945E-013
 0.910945E-013
 0.910945E-013
 0.910945E-013
 0.910945E-013
 0.910945E-013
 0.910945E-013
 0.910945E-013
 0.910945E-013
 0.910945E-013
 0.910945E-013
 0.910945E-013
 0.910945E-013
 0.910945E-013
 0.910945E-013
 0.910944E-013
 0.910944E-013
 0.910944E-013
 0.910944E-013
 0.910944E-013
 0.910943E-013
 0.910943E-013
 0.910943E-013
 0.910943E-013
 0.910942E-013
 0.910942E-013
 0.910942E-013
 0.910942E-013
 0.910941E-013
 0.910941E-013
 0.910941E-013
 0.910941E-013
 0.910941E-013
 0.910940E-013
 0.910940E-013
 0.910940E-013
 0.910940E-013
 0.910940E-013
 0.910940E-013
 0.910939E-013
 0.910939E-013
 0.910939E-013
 0.910939E-013
 0.910939E-013
 0.910939E-013
 0.910939E-013
 0.910939E-013
 0.910939E-013
 0.910939E-013
 0.910939E-013
 0.910938E-013
 0.910938E-013
 0.910938E-013
 0.910938E-013
 0.910938E-013
 0.910938E-013
 0.910938E-013
 0.910938E-013
 0.910938E-013
 0.910938E-013
 0.910938E-013
 0.910938E-013
 0.910938E-013
 0.910938E-013
 0.910939E-013
 0.910932E-013
 0.910982E-013
 0.910684E-013
 0.912133E-013
 0.906623E-013
 0.922018E-013
 0.923025E-013
 0.906221E-013
 0.912245E-013
 0.910660E-013
 0.910986E-013
 0.910931E-013
 0.910939E-013
 0.910938E-013
 0.910938E-013
 0.910938E-013
 0.910938E-013
 0.910938E-013
 0.910938E-013
 0.910938E-013
 0.910938E-013
 0.910938E-013
 0.910938E-013
 0.910938E-013
 0.910938E-013
 0.910938E-013
 0.910938E-013
 0.910938E-013
 0.910939E-013
 0.910939E-013
 0.910939E-013
 0.910939E-013
 0.910939E-013
 0.910939E-013
 0.910939E-013
 0.910939E-013
 0.910939E-013
 0.910940E-013
 0.910940E-013
 0.910940E-013
 0.910940E-013
 0.910940E-013
 0.910941E-013
 0.910941E-013
 0.910941E-013
 0.910941E-013
 0.910942E-013
 0.910942E-013
 0.910942E-013
 0.910942E-013
 0.910943E-013
 0.910943E-013
 0.910943E-013
 0.910944E-013
 0.910944E-013