# vtk DataFile Version 3.0
Solution data
ASCII
DATASET STRUCTURED_GRID
DIMENSIONS 128 128 1
POINTS 16384  double
      0.000004      0.000004      0.000000
      0.000012      0.000004      0.000000
      0.000020      0.000004      0.000000
      0.000027      0.000004      0.000000
      0.000035      0.000004      0.000000
      0.000043      0.000004      0.000000
      0.000051      0.000004      0.000000
      0.000059      0.000004      0.000000
      0.000066      0.000004      0.000000
      0.000074      0.000004      0.000000
      0.000082      0.000004      0.000000
      0.000090      0.000004      0.000000
      0.000098      0.000004      0.000000
      0.000105      0.000004      0.000000
      0.000113      0.000004      0.000000
      0.000121      0.000004      0.000000
      0.000129      0.000004      0.000000
      0.000137      0.000004      0.000000
      0.000145      0.000004      0.000000
      0.000152      0.000004      0.000000
      0.000160      0.000004      0.000000
      0.000168      0.000004      0.000000
      0.000176      0.000004      0.000000
      0.000184      0.000004      0.000000
      0.000191      0.000004      0.000000
      0.000199      0.000004      0.000000
      0.000207      0.000004      0.000000
      0.000215      0.000004      0.000000
      0.000223      0.000004      0.000000
      0.000230      0.000004      0.000000
      0.000238      0.000004      0.000000
      0.000246      0.000004      0.000000
      0.000254      0.000004      0.000000
      0.000262      0.000004      0.000000
      0.000270      0.000004      0.000000
      0.000277      0.000004      0.000000
      0.000285      0.000004      0.000000
      0.000293      0.000004      0.000000
      0.000301      0.000004      0.000000
      0.000309      0.000004      0.000000
      0.000316      0.000004      0.000000
      0.000324      0.000004      0.000000
      0.000332      0.000004      0.000000
      0.000340      0.000004      0.000000
      0.000348      0.000004      0.000000
      0.000355      0.000004      0.000000
      0.000363      0.000004      0.000000
      0.000371      0.000004      0.000000
      0.000379      0.000004      0.000000
      0.000387      0.000004      0.000000
      0.000395      0.000004      0.000000
      0.000402      0.000004      0.000000
      0.000410      0.000004      0.000000
      0.000418      0.000004      0.000000
      0.000426      0.000004      0.000000
      0.000434      0.000004      0.000000
      0.000441      0.000004      0.000000
      0.000449      0.000004      0.000000
      0.000457      0.000004      0.000000
      0.000465      0.000004      0.000000
      0.000473      0.000004      0.000000
      0.000480      0.000004      0.000000
      0.000488      0.000004      0.000000
      0.000496      0.000004      0.000000
      0.000504      0.000004      0.000000
      0.000512      0.000004      0.000000
      0.000520      0.000004      0.000000
      0.000527      0.000004      0.000000
      0.000535      0.000004      0.000000
      0.000543      0.000004      0.000000
      0.000551      0.000004      0.000000
      0.000559      0.000004      0.000000
      0.000566      0.000004      0.000000
      0.000574      0.000004      0.000000
      0.000582      0.000004      0.000000
      0.000590      0.000004      0.000000
      0.000598      0.000004      0.000000
      0.000605      0.000004      0.000000
      0.000613      0.000004      0.000000
      0.000621      0.000004      0.000000
      0.000629      0.000004      0.000000
      0.000637      0.000004      0.000000
      0.000645      0.000004      0.000000
      0.000652      0.000004      0.000000
      0.000660      0.000004      0.000000
      0.000668      0.000004      0.000000
      0.000676      0.000004      0.000000
      0.000684      0.000004      0.000000
      0.000691      0.000004      0.000000
      0.000699      0.000004      0.000000
      0.000707      0.000004      0.000000
      0.000715      0.000004      0.000000
      0.000723      0.000004      0.000000
      0.000730      0.000004      0.000000
      0.000738      0.000004      0.000000
      0.000746      0.000004      0.000000
      0.000754      0.000004      0.000000
      0.000762      0.000004      0.000000
      0.000770      0.000004      0.000000
      0.000777      0.000004      0.000000
      0.000785      0.000004      0.000000
      0.000793      0.000004      0.000000
      0.000801      0.000004      0.000000
      0.000809      0.000004      0.000000
      0.000816      0.000004      0.000000
      0.000824      0.000004      0.000000
      0.000832      0.000004      0.000000
      0.000840      0.000004      0.000000
      0.000848      0.000004      0.000000
      0.000855      0.000004      0.000000
      0.000863      0.000004      0.000000
      0.000871      0.000004      0.000000
      0.000879      0.000004      0.000000
      0.000887      0.000004      0.000000
      0.000895      0.000004      0.000000
      0.000902      0.000004      0.000000
      0.000910      0.000004      0.000000
      0.000918      0.000004      0.000000
      0.000926      0.000004      0.000000
      0.000934      0.000004      0.000000
      0.000941      0.000004      0.000000
      0.000949      0.000004      0.000000
      0.000957      0.000004      0.000000
      0.000965      0.000004      0.000000
      0.000973      0.000004      0.000000
      0.000980      0.000004      0.000000
      0.000988      0.000004      0.000000
      0.000996      0.000004      0.000000
      0.000004      0.000012      0.000000
      0.000012      0.000012      0.000000
      0.000020      0.000012      0.000000
      0.000027      0.000012      0.000000
      0.000035      0.000012      0.000000
      0.000043      0.000012      0.000000
      0.000051      0.000012      0.000000
      0.000059      0.000012      0.000000
      0.000066      0.000012      0.000000
      0.000074      0.000012      0.000000
      0.000082      0.000012      0.000000
      0.000090      0.000012      0.000000
      0.000098      0.000012      0.000000
      0.000105      0.000012      0.000000
      0.000113      0.000012      0.000000
      0.000121      0.000012      0.000000
      0.000129      0.000012      0.000000
      0.000137      0.000012      0.000000
      0.000145      0.000012      0.000000
      0.000152      0.000012      0.000000
      0.000160      0.000012      0.000000
      0.000168      0.000012      0.000000
      0.000176      0.000012      0.000000
      0.000184      0.000012      0.000000
      0.000191      0.000012      0.000000
      0.000199      0.000012      0.000000
      0.000207      0.000012      0.000000
      0.000215      0.000012      0.000000
      0.000223      0.000012      0.000000
      0.000230      0.000012      0.000000
      0.000238      0.000012      0.000000
      0.000246      0.000012      0.000000
      0.000254      0.000012      0.000000
      0.000262      0.000012      0.000000
      0.000270      0.000012      0.000000
      0.000277      0.000012      0.000000
      0.000285      0.000012      0.000000
      0.000293      0.000012      0.000000
      0.000301      0.000012      0.000000
      0.000309      0.000012      0.000000
      0.000316      0.000012      0.000000
      0.000324      0.000012      0.000000
      0.000332      0.000012      0.000000
      0.000340      0.000012      0.000000
      0.000348      0.000012      0.000000
      0.000355      0.000012      0.000000
      0.000363      0.000012      0.000000
      0.000371      0.000012      0.000000
      0.000379      0.000012      0.000000
      0.000387      0.000012      0.000000
      0.000395      0.000012      0.000000
      0.000402      0.000012      0.000000
      0.000410      0.000012      0.000000
      0.000418      0.000012      0.000000
      0.000426      0.000012      0.000000
      0.000434      0.000012      0.000000
      0.000441      0.000012      0.000000
      0.000449      0.000012      0.000000
      0.000457      0.000012      0.000000
      0.000465      0.000012      0.000000
      0.000473      0.000012      0.000000
      0.000480      0.000012      0.000000
      0.000488      0.000012      0.000000
      0.000496      0.000012      0.000000
      0.000504      0.000012      0.000000
      0.000512      0.000012      0.000000
      0.000520      0.000012      0.000000
      0.000527      0.000012      0.000000
      0.000535      0.000012      0.000000
      0.000543      0.000012      0.000000
      0.000551      0.000012      0.000000
      0.000559      0.000012      0.000000
      0.000566      0.000012      0.000000
      0.000574      0.000012      0.000000
      0.000582      0.000012      0.000000
      0.000590      0.000012      0.000000
      0.000598      0.000012      0.000000
      0.000605      0.000012      0.000000
      0.000613      0.000012      0.000000
      0.000621      0.000012      0.000000
      0.000629      0.000012      0.000000
      0.000637      0.000012      0.000000
      0.000645      0.000012      0.000000
      0.000652      0.000012      0.000000
      0.000660      0.000012      0.000000
      0.000668      0.000012      0.000000
      0.000676      0.000012      0.000000
      0.000684      0.000012      0.000000
      0.000691      0.000012      0.000000
      0.000699      0.000012      0.000000
      0.000707      0.000012      0.000000
      0.000715      0.000012      0.000000
      0.000723      0.000012      0.000000
      0.000730      0.000012      0.000000
      0.000738      0.000012      0.000000
      0.000746      0.000012      0.000000
      0.000754      0.000012      0.000000
      0.000762      0.000012      0.000000
      0.000770      0.000012      0.000000
      0.000777      0.000012      0.000000
      0.000785      0.000012      0.000000
[...]
POINT_DATA 16384
SCALARS rhoe double
LOOKUP_TABLE default
 0.914576E-013
 0.913167E-013
 0.914780E-013
 0.915705E-013
 0.916748E-013
 0.917772E-013
 0.918796E-013
 0.919818E-013
 0.920837E-013
 0.921854E-013
 0.922869E-013
 0.923880E-013
 0.924890E-013
 0.925896E-013
 0.926899E-013
 0.927899E-013
 0.928895E-013
 0.929887E-013
 0.930875E-013
 0.931859E-013
 0.932838E-013
 0.933812E-013
 0.934779E-013
 0.935741E-013
 0.936696E-013
 0.937643E-013
 0.938583E-013
 0.939514E-013
 0.940436E-013
 0.941348E-013
 0.942250E-013
 0.943140E-013
 0.944018E-013
 0.944882E-013
 0.945733E-013
 0.946568E-013
 0.947388E-013
 0.948191E-013
 0.948976E-013
 0.949743E-013
 0.950489E-013
 0.951215E-013
 0.951919E-013
 0.952599E-013
 0.953256E-013
 0.953888E-013
 0.954493E-013
 0.955072E-013
 0.955622E-013
 0.956143E-013
 0.956634E-013
 0.957095E-013
 0.957523E-013
 0.957919E-013
 0.958281E-013
 0.958610E-013
 0.958903E-013
 0.959161E-013
 0.959384E-013
 0.959570E-013
 0.959719E-013
 0.959831E-013
 0.959906E-013
 0.959944E-013
 0.959943E-013
 0.959906E-013
 0.959831E-013
 0.959719E-013
 0.959569E-013
 0.959383E-013
 0.959161E-013
 0.958902E-013
 0.958609E-013
 0.958280E-013
 0.957918E-013
 0.957522E-013
 0.957093E-013
 0.956633E-013
 0.956142E-013
 0.955620E-013
 0.955070E-013
 0.954491E-013
 0.953886E-013
 0.953254E-013
 0.952597E-013
 0.951916E-013
 0.951213E-013
 0.950487E-013
 0.949740E-013
 0.948974E-013
 0.948189E-013
 0.947386E-013
 0.946566E-013
 0.945730E-013
 0.944879E-013
 0.944015E-013
 0.943137E-013
 0.942247E-013
 0.941346E-013
 0.940434E-013
 0.939512E-013
 0.938580E-013
 0.937641E-013
 0.936693E-013
 0.935738E-013
 0.934777E-013
 0.933809E-013
 0.932835E-013
 0.931857E-013
 0.930873E-013
 0.929885E-013
 0.928893E-013
 0.927896E-013
 0.926897E-013
 0.925894E-013
 0.924888E-013
 0.923879E-013
 0.922867E-013
 0.921852E-013
 0.920836E-013
 0.919816E-013
 0.918795E-013
 0.917771E-013
 0.916747E-013
 0.915704E-013
 0.914779E-013
 0.913167E-013
 0.914575E-013
 0.913167E-013
 0.909428E-013
 0.910018E-013
 0.909535E-013
 0.909251E-013
 0.908939E-013
 0.908631E-013
 0.908323E-013
 0.908016E-013
 0.907711E-013
 0.907406E-013
 0.907102E-013
 0.906799E-013
 0.906497E-013
 0.906196E-013
 0.905896E-013
 0.905598E-013
 0.905301E-013
 0.905005E-013
 0.904711E-013
 0.904418E-013
 0.904127E-013
 0.903838E-013
 0.903551E-013
 0.903266E-013
 0.902983E-013
 0.902703E-013
 0.902425E-013
 0.902150E-013
 0.901879E-013
 0.901610E-013
 0.901346E-013
 0.901085E-013
 0.900828E-013
 0.900575E-013
 0.900327E-013
 0.900083E-013
 0.899845E-013
 0.899612E-013
 0.899385E-013
 0.899164E-013
 0.898949E-013
 0.898740E-013
 0.898539E-013
 0.898345E-013
 0.898158E-013
 0.897979E-013
 0.897808E-013
 0.897645E-013
 0.897491E-013
 0.897346E-013
 0.897210E-013
 0.897084E-013
 0.896967E-013
 0.896860E-013
 0.896763E-013
 0.896676E-013
 0.896600E-013
 0.896535E-013
 0.896480E-013
 0.896436E-013
 0.896403E-013
 0.896381E-013
 0.896370E-013
 0.896370E-013
 0.896381E-013
 0.896403E-013
 0.896436E-013
 0.896480E-013
 0.896535E-013
 0.896601E-013
 0.896677E-013
 0.896763E-013
 0.896860E-013
 0.896967E-013
 0.897084E-013
 0.897211E-013
 0.897347E-013
 0.897492E-013
 0.897646E-013
 0.897808E-013
 0.897979E-013
 0.898159E-013
 0.898345E-013
 0.898540E-013
 0.898741E-013
 0.898950E-013
 0.899165E-013
 0.899386E-013
 0.899613E-013
 0.899846E-013
 0.900084E-013
 0.900328E-013
 0.900576E-013
 0.900829E-013
 0.901086E-013
 0.901347E-013
 0.901612E-013
 0.901880E-013
 0.902151E-013
 0.902426E-013
 0.902704E-013
 0.902984E-013
 0.903267E-013
 0.903552E-013
 0.903839E-013
 0.904128E-013
 0.904419E-013
 0.904711E-013
 0.905006E-013
 0.905302E-013
 0.905599E-013
 0.905897E-013
 0.906197E-013
 0.906498E-013
 0.906800E-013
 0.907103E-013
 0.907406E-013
 0.907711E-013
 0.908017E-013
 0.908324E-013
 0.908631E-013
 0.908939E-013
 0.909251E-013
 0.909535E-013
 0.910019E-013
 0.909428E-013
 0.913167E-013
 0.914780E-013
 0.910018E-013
 0.911368E-013
 0.911184E-013
 0.911286E-013
 0.911345E-013
 0.911409E-013
 0.911473E-013
 0.911536E-013
 0.911599E-013
 0.911662E-013
 0.911725E-013
 0.911787E-013
 0.911850E-013
 0.911912E-013
 0.911974E-013
 0.912035E-013
 0.912097E-013
 0.912158E-013
 0.912218E-013
 0.912279E-013
 0.912339E-013
 0.912398E-013
 0.912458E-013
 0.912516E-013
 0.912575E-013
 0.912632E-013
 0.912690E-013
 0.912746E-013
 0.912802E-013
 0.912858E-013
 0.912912E-013
 0.912966E-013
 0.913019E-013
 0.913071E-013
 0.913122E-013
 0.913172E-013
 0.913221E-013
 0.913269E-013
 0.913316E-013
 0.913362E-013
 0.913406E-013
 0.913449E-013
 0.913491E-013
 0.913531E-013
 0.913569E-013
 0.913606E-013
 0.913642E-013
 0.913675E-013
 0.913707E-013
 0.913737E-013
 0.913765E-013
 0.913791E-013
 0.913815E-013
 0.913837E-013
 0.913857E-013
 0.913875E-013
 0.913891E-013
 0.913904E-013
 0.913916E-013
 0.913925E-013
 0.913932E-013
 0.913936E-013
 0.913939E-013
 0.913939E-013
 0.913936E-013
 0.913932E-013
 0.913925E-013
 0.913916E-013
 0.913904E-013
 0.913891E-013
 0.913875E-013
 0.913857E-013
 0.913837E-013
 0.913815E-013
 0.913791E-013
 0.913765E-013
 0.913737E-013
 0.913707E-013
 0.913675E-013
 0.913642E-013
 0.913606E-013
 0.913569E-013
 0.913531E-013
 0.913491E-013
 0.913449E-013
 0.913406E-013
 0.913362E-013
 0.913316E-013
 0.913269E-013
 0.913221E-013
 0.913172E-013
 0.913122E-013
 0.913071E-013
 0.913019E-013
 0.912966E-013
 0.912912E-013
 0.912857E-013
 0.912802E-013
 0.912746E-013
 0.912690E-013
 0.912632E-013
 0.912575E-013
 0.912516E-013
 0.912458E-013
 0.912398E-013
 0.912339E-013
 0.912279E-013
 0.912218E-013
 0.912158E-013
 0.912097E-013
 0.912035E-013
 0.911974E-013
 0.911912E-013
 0.911850E-013
 0.911787E-013
 0.911725E-013
 0.911662E-013
 0.911599E-013
 0.911536E-013
 0.911473E-013
 0.911409E-013
 0.911345E-013
 0.911286E-013
 0.911184E-013
 0.911368E-013
 0.910019E-013
 0.914779E-013
 0.915705E-013
 0.909535E-013
 0.911184E-013
 0.910852E-013
 0.910890E-013
 0.910874E-013
 0.910865E-013
 0.910855E-013
 0.910845E-013
 0.910835E-013
 0.910825E-013
 0.910815E-013
 0.910806E-013
 0.910796E-013
 0.910786E-013
 0.910777E-013
 0.910767E-013
 0.910757E-013
 0.910748E-013
 0.910738E-013
 0.910729E-013
 0.910720E-013
 0.910710E-013
 0.910701E-013
 0.910692E-013
 0.910683E-013
 0.910674E-013
 0.910665E-013
 0.910656E-013
 0.910648E-013
 0.910639E-013
 0.910631E-013
 0.910623E-013
 0.910614E-013
 0.910606E-013
 0.910599E-013
 0.910591E-013
 0.910583E-013
 0.910576E-013
 0.910569E-013
 0.910562E-013
 0.910555E-013
 0.910549E-013
 0.910543E-013
 0.910537E-013
 0.910531E-013
 0.910525E-013
 0.910520E-013
 0.910515E-013
 0.910510E-013
 0.910506E-013
 0.910502E-013
 0.910498E-013
 0.910494E-013
 0.910491E-013
 0.910488E-013
 0.910486E-013
 0.910483E-013
 0.910481E-013
 0.910480E-013
 0.910478E-013
 0.910477E-013
 0.910477E-013
 0.910476E-013
 0.910476E-013
 0.910477E-013
 0.910477E-013
 0.910478E-013
 0.910480E-013
 0.910481E-013
 0.910483E-013
 0.910486E-013
 0.910488E-013
 0.910491E-013
 0.910494E-013
 0.910498E-013
 0.910502E-013
 0.910506E-013
 0.910510E-013
 0.910515E-013
 0.910520E-013
 0.910525E-013
 0.910531E-013
 0.910537E-013
 0.910543E-013
 0.910549E-013
 0.910556E-013
 0.910562E-013
 0.910569E-013
 0.910576E-013
 0.910584E-013
 0.910591E-013
 0.910599E-013
 0.910607E-013
 0.910614E-013
 0.910623E-013
 0.910631E-013
 0.910639E-013
 0.910648E-013
 0.910656E-013
 0.910665E-013
 0.910674E-013
 0.910683E-013
 0.910692E-013
 0.910701E-013
 0.910710E-013
 0.910720E-013
 0.910729E-013
 0.910738E-013
 0.910748E-013
 0.910757E-013
 0.910767E-013
 0.910777E-013
 0.910786E-013
 0.910796E-013
 0.910806E-013
 0.910816E-013
 0.910825E-013
 0.910835E-013
 0.910845E-013
 0.910855E-013
 0.910865E-013
 0.910875E-013
 0.910891E-013
 0.910852E-013
 0.911184E-013
 0.909535E-013
 0.915704E-013
 0.916748E-013
 0.909251E-013
 0.911286E-013
 0.910890E-013
 0.910952E-013
 0.910945E-013
 0.910947E-013
 0.910949E-013
 0.910950E-013
 0.910951E-013
 0.910952E-013
 0.910954E-013
 0.910955E-013
 0.910956E-013
 0.910957E-013
 0.910959E-013
 0.910960E-013
 0.910961E-013
 0.910962E-013
 0.910963E-013
 0.910965E-013
 0.910966E-013
 0.910967E-013
 0.910968E-013
 0.910970E-013
 0.910971E-013
 0.910972E-013
 0.910973E-013
 0.910974E-013
 0.910976E-013
 0.910977E-013
 0.910978E-013
 0.910979E-013
 0.910980E-013
 0.910982E-013
 0.910983E-013
 0.910984E-013
 0.910985E-013
 0.910986E-013
 0.910987E-013
 0.910988E-013
 0.910989E-013
 0.910990E-013
 0.910992E-013
 0.910993E-013
 0.910994E-013
 0.910994E-013
 0.910995E-013
 0.910996E-013
 0.910997E-013
 0.910998E-013
 0.910999E-013
 0.910999E-013
 0.911000E-013
 0.911001E-013
 0.911001E-013
 0.911002E-013
 0.911002E-013
 0.911003E-013
 0.911003E-013
 0.911003E-013
 0.911003E-013
 0.911004E-013
 0.911004E-013
 0.911004E-013
 0.911004E-013
 0.911003E-013
 0.911003E-013
 0.911003E-013
 0.911003E-013
 0.911002E-013
 0.911002E-013
 0.911001E-013
 0.911001E-013
 0.911000E-013
 0.910999E-013
 0.910999E-013
 0.910998E-013
 0.910997E-013
 0.910996E-013
 0.910995E-013
 0.910995E-013
 0.910994E-013
 0.910993E-013
 0.910992E-013
 0.910991E-013
 0.910989E-013
 0.910988E-013
 0.910987E-013
 0.910986E-013
 0.910985E-013
 0.910984E-013
 0.910983E-013
 0.910982E-013
 0.910980E-013
 0.910979E-013
 0.910978E-013
 0.910977E-013
 0.910976E-013
 0.910974E-013
 0.910973E-013
 0.910972E-013
 0.910971E-013
 0.910970E-013
 0.910968E-013
 0.910967E-013
 0.910966E-013
 0.910965E-013
 0.910964E-013
 0.910962E-013
 0.910961E-013
 0.910960E-013
 0.910959E-013
 0.910957E-013
 0.910956E-013
 0.910955E-013
 0.910954E-013
 0.910952E-013
 0.910951E-013
 0.910950E-013
 0.910949E-013
 0.910948E-013
 0.910946E-013
 0.910952E-013
 0.910891E-013
 0.911286E-013
 0.909251E-013
 0.916747E-013
 0.917772E-013
 0.908939E-013
 0.911345E-013
 0.910874E-013
 0.910945E-013
 0.910937E-013
 0.910937E-013
 0.910937E-013
 0.910937E-013
 0.910937E-013
 0.910937E-013
 0.910937E-013
 0.910936E-013
 0.910936E-013
 0.910936E-013
 0.910936E-013
 0.910936E-013
 0.910936E-013
 0.910936E-013
 0.910936E-013
 0.910936E-013
 0.910935E-013
 0.910935E-013
 0.910935E-013
 0.910935E-013
 0.910935E-013
 0.910935E-013
 0.910935E-013
 0.910935E-013
 0.910935E-013
 0.910935E-013
 0.910935E-013
 0.910935E-013
 0.910935E-013
 0.910935E-013
 0.910936E-013
 0.910936E-013
 0.910936E-013
 0.910936E-013
 0.910936E-013
 0.910936E-013
 0.910936E-013
 0.910937E-013
 0.910937E-013
 0.910937E-013
 0.910937E-013
 0.910937E-013
 0.910938E-013
 0.910938E-013
 0.910938E-013
 0.910938E-013
 0.910938E-013
 0.910939E-013
 0.910939E-013
 0.910939E-013
 0.910939E-013
 0.910939E-013
 0.910939E-013
 0.910940E-013
 0.910940E-013
 0.910940E-013
 0.910940E-013
 0.910940E-013
 0.910940E-013
 0.910940E-013
 0.910940E-013
 0.910940E-013
 0.910940E-013
 0.910940E-013
 0.910940E-013
 0.910939E-013
 0.910939E-013
 0.910939E-013
 0.910939E-013
 0.910939E-013
 0.910939E-013
 0.910938E-013
 0.910938E-013
 0.910938E-013
 0.910938E-013
 0.910938E-013
 0.910937E-013
 0.910937E-013
 0.910937E-013
 0.910937E-013
 0.910937E-013
 0.910936E-013
 0.910936E-013
 0.910936E-013
 0.910936E-013
 0.910936E-013
 0.910936E-013
 0.910936E-013
 0.910936E-013
 0.910935E-013
 0.910935E-013
 0.910935E-013
 0.910935E-013
 0.910935E-013
 0.910935E-013
 0.910935E-013
 0.910935E-013
 0.910935E-013
 0.910935E-013
 0.910935E-013
 0.910936E-013
 0.910936E-013
 0.910936E-013
 0.910936E-013
 0.910936E-013
 0.910936E-013
 0.910936E-013
 0.910936E-013
 0.910936E-013
 0.910936E-013
 0.910937E-013
 0.910937E-013
 0.910937E-013
 0.910937E-013
 0.910937E-013
 0.910937E-013
 0.910937E-013
 0.910937E-013
 0.910946E-013
 0.910875E-013
 0.911345E-013
 0.908939E-013
 0.917771E-013
 0.918796E-013
 0.908631E-013
 0.911409E-013
 0.910865E-013
 0.910947E-013
 0.910937E-013
 0.910938E-013
 0.910938E-013
 0.910938E-013
 0.910938E-013
 0.910938E-013
 0.910938E-013
 0.910938E-013
 0.910938E-013
 0.910938E-013
 0.910938E-013
 0.910938E-013
 0.910938E-013
 0.910939E-013
 0.910939E-013
 0.910939E-013
 0.910939E-013
 0.910939E-013
 0.910939E-013
 0.910939E-013
 0.910939E-013
 0.910939E-013
 0.910939E-013
 0.910939E-013
 0.910940E-013
 0.910940E-013
 0.910940E-013
 0.910940E-013
 0.910940E-013
 0.910941E-013
 0.910941E-013
 0.910941E-013
 0.910941E-013
 0.910942E-013
 0.910942E-013
 0.910942E-013
 0.910943E-013
 0.910943E-013
 0.910943E-013
 0.910944E-013
 0.910944E-013
 0.910944E-013
 0.910945E-013
 0.910945E-013
 0.910945E-013
 0.910946E-013
 0.910946E-013
 0.910946E-013
 0.910947E-013
 0.910947E-013
 0.910947E-013
 0.910947E-013
 0.910948E-013
 0.910948E-013
 0.910948E-013
 0.910948E-013
 0.910948E-013
 0.910948E-013
 0.910948E-013
 0.910948E-013
 0.910948E-013
 0.910948E-013
 0.910948E-013
 0.910948E-013
 0.910948E-013
 0.910948E-013
 0.910947E-013
 0.910947E-013
 0.910947E-013
 0.910947E-013
 0.910946E-013
 0.910946E-013
 0.910946E-013
 0.910945E-013
 0.910945E-013
 0.910945E-013
 0.910944E-013
 0.910944E-013
 0.910944E-013
 0.910943E-013
 0.910943E-013
 0.910943E-013
 0.910942E-013
 0.910942E-013
 0.910942E-013
 0.910942E-013
 0.910941E-013
 0.910941E-013
 0.910941E-013
 0.910941E-013
 0.910940E-013
 0.910940E-013
 0.910940E-013
 0.910940E-013
 0.910940E-013
 0.910939E-013
 0.910939E-013
 0.910939E-013
 0.910939E-013
 0.910939E-013
 0.910939E-013
 0.910939E-013
 0.910939E-013
 0.910939E-013
 0.910939E-013
 0.910939E-013
 0.910939E-013
 0.910939E-013
 0.910938E-013
 0.910938E-013
 0.910938E-013
 0.910938E-013
 0.910938E-013
 0.910938E-013
 0.910938E-013
 0.910938E-013
 0.910938E-013
 0.910937E-013
 0.910948E-013
 0.910865E-013
 0.911409E-013
 0.908631E-013
 0.918795E-013
 0.919818E-013
 0.908323E-013
 0.911473E-013
 0.910855E-013
 0.910949E-013
 0.910937E-013
 0.910938E-013
 0.910938E-013
 0.910938E-013
 0.910938E-013
 0.910938E-013
 0.910938E-013
 0.910938E-013
 0.910938E-013
 0.910938E-013
 0.910938E-013
 0.910938E-013
 0.910938E-013
 0.910938E-013
 0.910938E-013
 0.910938E-013
 0.910938E-013
 0.910939E-013
 0.910939E-013
 0.910939E-013
 0.910939E-013
 0.910939E-013
 0.910939E-013
 0.910939E-013
 0.910940E-013
 0.910940E-013
 0.910940E-013
 0.910940E-013
 0.910940E-013
 0.910941E-013
 0.910941E-013
 0.910941E-013
 0.910942E-013
 0.910942E-013
 0.910942E-013
 0.910943E-013
 0.910943E-013
 0.910943E-013
 0.910944E-013
 0.910944E-013
 0.910945E-013
 0.910945E-013
 0.910945E-013
 0.910946E-013
 0.910946E-013
 0.910947E-013
 0.910947E-013
 0.910947E-013
 0.910948E-013
 0.910948E-013
 0.910948E-013
 0.910949E-013
 0.910949E-013
 0.910949E-013
 0.910949E-013
 0.910949E-013
 0.910949E-013
 0.910950E-013
 0.910950E-013
 0.910950E-013
 0.910950E-013
 0.910949E-013
 0.910949E-013
 0.910949E-013
 0.910949E-013
 0.910949E-013
 0.910949E-013
 0.910948E-013
 0.910948E-013
 0.910948E-013
 0.910947E-013
 0.910947E-013
 0.910947E-013
 0.910946E-013
 0.910946E-013
 0.910945E-013
 0.910945E-013
 0.910945E-013
 0.910944E-013
 0.910944E-013
 0.910943E-013
 0.910943E-013
 0.910943E-013
 0.910942E-013
 0.910942E-013
 0.910942E-013
 0.910941E-013
 0.910941E-013
 0.910941E-013
 0.910941E-013
 0.910940E-013
 0.910940E-013
 0.910940E-013
 0.910940E-013
 0.910939E-013
 0.910939E-013
 0.910939E-013
 0.910939E-013
 0.910939E-013
 0.910939E-013
 0.910939E-013
 0.910939E-013
 0.910939E-013
 0.910938E-013
 0.910938E-013
 0.910938E-013
 0.910938E-013
 0.910938E-013
 0.910938E-013
 0.910938E-013
 0.910938E-013
 0.910938E-013
 0.910938E-013
 0.910938E-013
 0.910938E-013
 0.910938E-013
 0.910938E-013
 0.910937E-013
 0.910949E-013
 0.910855E-013
 0.911473E-013
 0.908324E-013
 0.919816E-013
 0.920837E-013
 0.908016E-013
 0.911536E-013
 0.910845E-013
 0.910950E-013
 0.910937E-013
 0.910938E-013
 0.910938E-013
 0.910938E-013
 0.910938E-013
 0.910938E-013
 0.910938E-013
 0.910938E-013
 0.910938E-013
 0.910938E-013
 0.910938E-013
 0.910938E-013
 0.910938E-013
 0.910938E-013
 0.910938E-013
 0.910939E-013
 0.910939E-013
 0.910939E-013
 0.910939E-013
 0.910939E-013
 0.910939E-013
 0.910939E-013
 0.910939E-013
 0.910940E-013
 0.910940E-013
 0.910940E-013
 0.910940E-013
 0.910941E-013
 0.910941E-013
 0.910941E-013
 0.910942E-013
 0.910942E-013
 0.910942E-013
 0.910943E-013
 0.910943E-013
 0.910944E-013
 0.910944E-013
 0.910944E-013
 0.910945E-013
 0.910945E-013
 0.910946E-013
 0.910946E-013
 0.910947E-013
 0.910947E-013
 0.910948E-013
 0.910948E-013
 0.910949E-013
 0.910949E-013
 0.910950E-013
 0.910950E-013
 0.910950E-013
 0.910951E-013
 0.910951E-013
 0.910951E-013
 0.910951E-013
 0.910952E-013
 0.910952E-013
 0.910952E-013
 0.910952E-013
 0.910952E-013
 0.910952E-013
 0.910952E-013
 0.910952E-013
 0.910951E-013
 0.910951E-013
 0.910951E-013
 0.910951E-013
 0.910950E-013
 0.910950E-013
 0.910950E-013
 0.910949E-013
 0.910949E-013
 0.910948E-013
 0.910948E-013
 0.910947E-013
 0.910947E-013
 0.910946E-013
 0.910946E-013
 0.910945E-013
 0.910945E-013
 0.910945E-013
 0.910944E-013
 0.910944E-013
 0.910943E-013
 0.910943E-013
 0.910942E-013
 0.910942E-013
 0.910942E-013
 0.910941E-013
 0.910941E-013
 0.910941E-013
 0.910940E-013
 0.910940E-013
 0.910940E-013
 0.910940E-013
 0.910940E-013
 0.910939E-013
 0.910939E-013
 0.910939E-013
 0.910939E-013
 0.910939E-013
 0.910939E-013
 0.910939E-013
 0.910939E-013
 0.910939E-013
 0.910938E-013
 0.910938E-013
 0.910938E-013
 0.910938E-013
 0.910938E-013
 0.910938E-013
 0.910938E-013
 0.910938E-013
 0.910938E-013
 0.910938E-013
 0.910938E-013
 0.910938E-013
 0.910937E-013
 0.910950E-013
 0.910845E-013
 0.911536E-013
 0.908017E-013
 0.920835E-013
 0.921854E-013
 0.907711E-013
 0.911599E-013
 0.910835E-013
 0.910951E-013
 0.910937E-013
 0.910938E-013
 0.910938E-013
 0.910938E-013
 0.910938E-013
 0.910938E-013
 0.910938E-013
 0.910938E-013
 0.910938E-013
 0.910938E-013
 0.910938E-013
 0.910938E-013
 0.910938E-013
 0.910938E-013
 0.910939E-013
 0.910939E-013
 0.910939E-013
 0.910939E-013
 0.910939E-013
 0.910939E-013
 0.910939E-013
 0.910940E-013
 0.910940E-013
 0.910940E-013
 0.910940E-013
 0.910940E-013
 0.910941E-013
 0.910941E-013
 0.910941E-013
 0.910942E-013
 0.910942E-013
 0.910943E-013
 0.910943E-013
 0.910944E-013
 0.910944E-013
 0.910945E-013
 0.910945E-013
 0.910946E-013
 0.910946E-013
 0.910947E-013
 0.910947E-013
 0.910948E-013
 0.910949E-013
 0.910949E-013
 0.910950E-013
 0.910950E-013
 0.910951E-013
 0.910951E-013
 0.910952E-013
 0.910952E-013
 0.910953E-013
 0.910953E-013
 0.910953E-013
 0.910954E-013
 0.910954E-013
 0.910954E-013
 0.910954E-013
 0.910954E-013
 0.910954E-013
 0.910954E-013
 0.910954E-013
 0.910954E-013
 0.910954E-013
 0.910954E-013
 0.910954E-013
 0.910953E-013
 0.910953E-013
 0.910953E-013
 0.910952E-013
 0.910952E-013
 0.910951E-013
 0.910951E-013
 0.910950E-013
 0.910950E-013
 0.910949E-013
 0.910949E-013
 0.910948E-013
 0.910947E-013
 0.910947E-013
 0.910946E-013
 0.910946E-013
 0.910945E-013
 0.910945E-013
 0.910944E-013
 0.910944E-013
 0.910943E-013
 0.910943E-013
 0.910942E-013
 0.910942E-013
 0.910942E-013
 0.910941E-013
 0.910941E-013
 0.910941E-013
 0.910940E-013
 0.910940E-013
 0.910940E-013
 0.910940E-013
 0.910939E-013
 0.910939E-013
 0.910939E-013
 0.910939E-013
 0.910939E-013
 0.910939E-013
 0.910939E-013
 0.910939E-013
 0.910939E-013
 0.910938E-013
 0.910938E-013
 0.910938E-013
 0.910938E-013
 0.910938E-013
 0.910938E-013
 0.910938E-013
 0.910938E-013
 0.910938E-013
 0.910938E-013
 0.910938E-013
 0.910937E-013
 0.910951E-013
 0.910835E-013
 0.911599E-013
 0.907712E-013
 0.921852E-013
 0.922869E-013
 0.907406E-013
 0.911662E-013
 0.910825E-013
 0.910952E-013
 0.910937E-013
 0.910938E-013
 0.910938E-013
 0.910938E-013
 0.910938E-013
 0.910938E-013
 0.910938E-013
 0.910938E-013
 0.910938E-013
 0.910938E-013
 0.910938E-013
 0.910938E-013
 0.910938E-013
 0.910939E-013
 0.910939E-013
 0.910939E-013
 0.910939E-013
 0.910939E-013
 0.910939E-013
 0.910939E-013
 0.910940E-013
 0.910940E-013
 0.910940E-013
 0.910940E-013
 0.910941E-013
 0.910941E-013
 0.910941E-013
 0.910942E-013
 0.910942E-013
 0.910943E-013
 0.910943E-013
 0.910944E-013
 0.910944E-013
 0.910945E-013
 0.910945E-013
 0.910946E-013
 0.910946E-013
 0.910947E-013
 0.910948E-013
 0.910948E-013
 0.910949E-013
 0.910950E-013
 0.910950E-013
 0.910951E-013