# vtk DataFile Version 3.0
Solution data
ASCII
DATASET STRUCTURED_GRID
DIMENSIONS 128 128 1
POINTS 16384  double
      0.000004      0.000004      0.000000
      0.000012      0.000004      0.000000
      0.000020      0.000004      0.000000
      0.000027      0.000004      0.000000
      0.000035      0.000004      0.000000
      0.000043      0.000004      0.000000
      0.000051      0.000004      0.000000
      0.000059      0.000004      0.000000
      0.000066      0.000004      0.000000
      0.000074      0.000004      0.000000
      0.000082      0.000004      0.000000
      0.000090      0.000004      0.000000
      0.000098      0.000004      0.000000
      0.000105      0.000004      0.000000
      0.000113      0.000004      0.000000
      0.000121      0.000004      0.000000
      0.000129      0.000004      0.000000
      0.000137      0.000004      0.000000
      0.000145      0.000004      0.000000
      0.000152      0.000004      0.000000
      0.000160      0.000004      0.000000
      0.000168      0.000004      0.000000
      0.000176      0.000004      0.000000
      0.000184      0.000004      0.000000
      0.000191      0.000004      0.000000
      0.000199      0.000004      0.000000
      0.000207      0.000004      0.000000
      0.000215      0.000004      0.000000
      0.000223      0.000004      0.000000
      0.000230      0.000004      0.000000
      0.000238      0.000004      0.000000
      0.000246      0.000004      0.000000
      0.000254      0.000004      0.000000
      0.000262      0.000004      0.000000
      0.000270      0.000004      0.000000
      0.000277      0.000004      0.000000
      0.000285      0.000004      0.000000
      0.000293      0.000004      0.000000
      0.000301      0.000004      0.000000
      0.000309      0.000004      0.000000
      0.000316      0.000004      0.000000
      0.000324      0.000004      0.000000
      0.000332      0.000004      0.000000
      0.000340      0.000004      0.000000
      0.000348      0.000004      0.000000
      0.000355      0.000004      0.000000
      0.000363      0.000004      0.000000
      0.000371      0.000004      0.000000
      0.000379      0.000004      0.000000
      0.000387      0.000004      0.000000
      0.000395      0.000004      0.000000
      0.000402      0.000004      0.000000
      0.000410      0.000004      0.000000
      0.000418      0.000004      0.000000
      0.000426      0.000004      0.000000
      0.000434      0.000004      0.000000
      0.000441      0.000004      0.000000
      0.000449      0.000004      0.000000
      0.000457      0.000004      0.000000
      0.000465      0.000004      0.000000
      0.000473      0.000004      0.000000
      0.000480      0.000004      0.000000
      0.000488      0.000004      0.000000
      0.000496      0.000004      0.000000
      0.000504      0.000004      0.000000
      0.000512      0.000004      0.000000
      0.000520      0.000004      0.000000
      0.000527      0.000004      0.000000
      0.000535      0.000004      0.000000
      0.000543      0.000004      0.000000
      0.000551      0.000004      0.000000
      0.000559      0.000004      0.000000
      0.000566      0.000004      0.000000
      0.000574      0.000004      0.000000
      0.000582      0.000004      0.000000
      0.000590      0.000004      0.000000
      0.000598      0.000004      0.000000
      0.000605      0.000004      0.000000
      0.000613      0.000004      0.000000
      0.000621      0.000004      0.000000
      0.000629      0.000004      0.000000
      0.000637      0.000004      0.000000
      0.000645      0.000004      0.000000
      0.000652      0.000004      0.000000
      0.000660      0.000004      0.000000
      0.000668      0.000004      0.000000
      0.000676      0.000004      0.000000
      0.000684      0.000004      0.000000
      0.000691      0.000004      0.000000
      0.000699      0.000004      0.000000
      0.000707      0.000004      0.000000
      0.000715      0.000004      0.000000
      0.000723      0.000004      0.000000
      0.000730      0.000004      0.000000
      0.000738      0.000004      0.000000
      0.000746      0.000004      0.000000
      0.000754      0.000004      0.000000
      0.000762      0.000004      0.000000
      0.000770      0.000004      0.000000
      0.000777      0.000004      0.000000
      0.000785      0.000004      0.000000
      0.000793      0.000004      0.000000
      0.000801      0.000004      0.000000
      0.000809      0.000004      0.000000
      0.000816      0.000004      0.000000
      0.000824      0.000004      0.000000
      0.000832      0.000004      0.000000
      0.000840      0.000004      0.000000
      0.000848      0.000004      0.000000
      0.000855      0.000004      0.000000
      0.000863      0.000004      0.000000
      0.000871      0.000004      0.000000
      0.000879      0.000004      0.000000
      0.000887      0.000004      0.000000
      0.000895      0.000004      0.000000
      0.000902      0.000004      0.000000
      0.000910      0.000004      0.000000
      0.000918      0.000004      0.000000
      0.000926      0.000004      0.000000
      0.000934      0.000004      0.000000
      0.000941      0.000004      0.000000
      0.000949      0.000004      0.000000
      0.000957      0.000004      0.000000
      0.000965      0.000004      0.000000
      0.000973      0.000004      0.000000
      0.000980      0.000004      0.000000
      0.000988      0.000004      0.000000
      0.000996      0.000004      0.000000
      0.000004      0.000012      0.000000
      0.000012      0.000012      0.000000
      0.000020      0.000012      0.000000
      0.000027      0.000012      0.000000
      0.000035      0.000012      0.000000
      0.000043      0.000012      0.000000
      0.000051      0.000012      0.000000
      0.000059      0.000012      0.000000
      0.000066      0.000012      0.000000
      0.000074      0.000012      0.000000
      0.000082      0.000012      0.000000
      0.000090      0.000012      0.000000
      0.000098      0.000012      0.000000
      0.000105      0.000012      0.000000
      0.000113      0.000012      0.000000
      0.000121      0.000012      0.000000
      0.000129      0.000012      0.000000
      0.000137      0.000012      0.000000
      0.000145      0.000012      0.000000
      0.000152      0.000012      0.000000
      0.000160      0.000012      0.000000
      0.000168      0.000012      0.000000
      0.000176      0.000012      0.000000
      0.000184      0.000012      0.000000
      0.000191      0.000012      0.000000
      0.000199      0.000012      0.000000
      0.000207      0.000012      0.000000
      0.000215      0.000012      0.000000
      0.000223      0.000012      0.000000
      0.000230      0.000012      0.000000
      0.000238      0.000012      0.000000
      0.000246      0.000012      0.000000
      0.000254      0.000012      0.000000
      0.000262      0.000012      0.000000
      0.000270      0.000012      0.000000
      0.000277      0.000012      0.000000
      0.000285      0.000012      0.000000
      0.000293      0.000012      0.000000
      0.000301      0.000012      0.000000
      0.000309      0.000012      0.000000
      0.000316      0.000012      0.000000
      0.000324      0.000012      0.000000
      0.000332      0.000012      0.000000
      0.000340      0.000012      0.000000
      0.000348      0.000012      0.000000
      0.000355      0.000012      0.000000
      0.000363      0.000012      0.000000
      0.000371      0.000012      0.000000
      0.000379      0.000012      0.000000
      0.000387      0.000012      0.000000
      0.000395      0.000012      0.000000
      0.000402      0.000012      0.000000
      0.000410      0.000012      0.000000
      0.000418      0.000012      0.000000
      0.000426      0.000012      0.000000
      0.000434      0.000012      0.000000
      0.000441      0.000012      0.000000
      0.000449      0.000012      0.000000
      0.000457      0.000012      0.000000
      0.000465      0.000012      0.000000
      0.000473      0.000012      0.000000
      0.000480      0.000012      0.000000
      0.000488      0.000012      0.000000
      0.000496      0.000012      0.000000
      0.000504      0.000012      0.000000
      0.000512      0.000012      0.000000
      0.000520      0.000012      0.000000
      0.000527      0.000012      0.000000
      0.000535      0.000012      0.000000
      0.000543      0.000012      0.000000
      0.000551      0.000012      0.000000
      0.000559      0.000012      0.000000
      0.000566      0.000012      0.000000
      0.000574      0.000012      0.000000
      0.000582      0.000012      0.000000
      0.000590      0.000012      0.000000
      0.000598      0.000012      0.000000
      0.000605      0.000012      0.000000
      0.000613      0.000012      0.000000
      0.000621      0.000012      0.000000
      0.000629      0.000012      0.000000
      0.000637      0.000012      0.000000
      0.000645      0.000012      0.000000
      0.000652      0.000012      0.000000
      0.000660      0.000012      0.000000
      0.000668      0.000012      0.000000
      0.000676      0.000012      0.000000
      0.000684      0.000012      0.000000
      0.000691      0.000012      0.000000
      0.000699      0.000012      0.000000
      0.000707      0.000012      0.000000
      0.000715      0.000012      0.000000
      0.000723      0.000012      0.000000
      0.000730      0.000012      0.000000
      0.000738      0.000012      0.000000
      0.000746      0.000012      0.000000
      0.000754      0.000012      0.000000
      0.000762      0.000012      0.000000
      0.000770      0.000012      0.000000
      0.000777      0.000012      0.000000
      0.000785      0.000012      0.000000
[...]
POINT_DATA 16384
SCALARS rhoe double
LOOKUP_TABLE default
 0.915338E-013
 0.913090E-013
 0.915123E-013
 0.915892E-013
 0.916957E-013
 0.917962E-013
 0.918974E-013
 0.919982E-013
 0.920987E-013
 0.921990E-013
 0.922990E-013
 0.923987E-013
 0.924981E-013
 0.925972E-013
 0.926960E-013
 0.927943E-013
 0.928923E-013
 0.929899E-013
 0.930870E-013
 0.931836E-013
 0.932797E-013
 0.933753E-013
 0.934702E-013
 0.935645E-013
 0.936581E-013
 0.937510E-013
 0.938430E-013
 0.939341E-013
 0.940244E-013
 0.941136E-013
 0.942017E-013
 0.942887E-013
 0.943744E-013
 0.944588E-013
 0.945418E-013
 0.946234E-013
 0.947033E-013
 0.947816E-013
 0.948581E-013
 0.949327E-013
 0.950054E-013
 0.950760E-013
 0.951445E-013
 0.952107E-013
 0.952745E-013
 0.953359E-013
 0.953948E-013
 0.954509E-013
 0.955044E-013
 0.955550E-013
 0.956026E-013
 0.956473E-013
 0.956889E-013
 0.957272E-013
 0.957624E-013
 0.957942E-013
 0.958227E-013
 0.958477E-013
 0.958692E-013
 0.958873E-013
 0.959017E-013
 0.959126E-013
 0.959199E-013
 0.959235E-013
 0.959235E-013
 0.959199E-013
 0.959126E-013
 0.959017E-013
 0.958872E-013
 0.958692E-013
 0.958477E-013
 0.958226E-013
 0.957942E-013
 0.957623E-013
 0.957272E-013
 0.956888E-013
 0.956472E-013
 0.956026E-013
 0.955549E-013
 0.955043E-013
 0.954509E-013
 0.953947E-013
 0.953359E-013
 0.952745E-013
 0.952106E-013
 0.951444E-013
 0.950759E-013
 0.950053E-013
 0.949326E-013
 0.948580E-013
 0.947815E-013
 0.947032E-013
 0.946233E-013
 0.945417E-013
 0.944587E-013
 0.943743E-013
 0.942886E-013
 0.942016E-013
 0.941135E-013
 0.940243E-013
 0.939340E-013
 0.938429E-013
 0.937509E-013
 0.936580E-013
 0.935644E-013
 0.934701E-013
 0.933752E-013
 0.932796E-013
 0.931835E-013
 0.930869E-013
 0.929898E-013
 0.928922E-013
 0.927942E-013
 0.926959E-013
 0.925971E-013
 0.924981E-013
 0.923987E-013
 0.922990E-013
 0.921990E-013
 0.920987E-013
 0.919981E-013
 0.918973E-013
 0.917962E-013
 0.916957E-013
 0.915892E-013
 0.915122E-013
 0.913090E-013
 0.915338E-013
 0.913090E-013
 0.908734E-013
 0.909706E-013
 0.908911E-013
 0.908568E-013
 0.908133E-013
 0.907715E-013
 0.907296E-013
 0.906879E-013
 0.906462E-013
 0.906048E-013
 0.905634E-013
 0.905222E-013
 0.904811E-013
 0.904401E-013
 0.903994E-013
 0.903588E-013
 0.903184E-013
 0.902781E-013
 0.902381E-013
 0.901983E-013
 0.901588E-013
 0.901195E-013
 0.900805E-013
 0.900417E-013
 0.900033E-013
 0.899653E-013
 0.899276E-013
 0.898903E-013
 0.898534E-013
 0.898170E-013
 0.897811E-013
 0.897457E-013
 0.897108E-013
 0.896765E-013
 0.896429E-013
 0.896099E-013
 0.895776E-013
 0.895460E-013
 0.895152E-013
 0.894852E-013
 0.894561E-013
 0.894278E-013
 0.894005E-013
 0.893742E-013
 0.893489E-013
 0.893246E-013
 0.893015E-013
 0.892794E-013
 0.892586E-013
 0.892390E-013
 0.892206E-013
 0.892034E-013
 0.891876E-013
 0.891731E-013
 0.891600E-013
 0.891483E-013
 0.891380E-013
 0.891291E-013
 0.891217E-013
 0.891158E-013
 0.891113E-013
 0.891083E-013
 0.891068E-013
 0.891068E-013
 0.891083E-013
 0.891113E-013
 0.891158E-013
 0.891217E-013
 0.891292E-013
 0.891380E-013
 0.891483E-013
 0.891601E-013
 0.891732E-013
 0.891877E-013
 0.892035E-013
 0.892206E-013
 0.892390E-013
 0.892587E-013
 0.892795E-013
 0.893015E-013
 0.893247E-013
 0.893490E-013
 0.893743E-013
 0.894006E-013
 0.894279E-013
 0.894562E-013
 0.894853E-013
 0.895153E-013
 0.895461E-013
 0.895777E-013
 0.896100E-013
 0.896430E-013
 0.896766E-013
 0.897109E-013
 0.897458E-013
 0.897812E-013
 0.898171E-013
 0.898536E-013
 0.898904E-013
 0.899277E-013
 0.899654E-013
 0.900035E-013
 0.900419E-013
 0.900806E-013
 0.901196E-013
 0.901589E-013
 0.901984E-013
 0.902382E-013
 0.902782E-013
 0.903184E-013
 0.903589E-013
 0.903995E-013
 0.904402E-013
 0.904811E-013
 0.905222E-013
 0.905635E-013
 0.906048E-013
 0.906463E-013
 0.906879E-013
 0.907297E-013
 0.907716E-013
 0.908133E-013
 0.908568E-013
 0.908912E-013
 0.909706E-013
 0.908735E-013
 0.913090E-013
 0.915123E-013
 0.909706E-013
 0.911804E-013
 0.911400E-013
 0.911636E-013
 0.911739E-013
 0.911865E-013
 0.911988E-013
 0.912110E-013
 0.912232E-013
 0.912354E-013
 0.912475E-013
 0.912596E-013
 0.912716E-013
 0.912836E-013
 0.912955E-013
 0.913074E-013
 0.913192E-013
 0.913310E-013
 0.913427E-013
 0.913544E-013
 0.913659E-013
 0.913774E-013
 0.913889E-013
 0.914002E-013
 0.914114E-013
 0.914226E-013
 0.914336E-013
 0.914445E-013
 0.914553E-013
 0.914659E-013
 0.914765E-013
 0.914868E-013
 0.914970E-013
 0.915070E-013
 0.915169E-013
 0.915265E-013
 0.915360E-013
 0.915452E-013
 0.915542E-013
 0.915630E-013
 0.915715E-013
 0.915798E-013
 0.915878E-013
 0.915955E-013
 0.916029E-013
 0.916100E-013
 0.916167E-013
 0.916232E-013
 0.916293E-013
 0.916350E-013
 0.916404E-013
 0.916454E-013
 0.916500E-013
 0.916543E-013
 0.916581E-013
 0.916615E-013
 0.916646E-013
 0.916672E-013
 0.916693E-013
 0.916711E-013
 0.916724E-013
 0.916732E-013
 0.916737E-013
 0.916737E-013
 0.916732E-013
 0.916724E-013
 0.916711E-013
 0.916693E-013
 0.916671E-013
 0.916645E-013
 0.916615E-013
 0.916581E-013
 0.916543E-013
 0.916500E-013
 0.916454E-013
 0.916404E-013
 0.916350E-013
 0.916293E-013
 0.916232E-013
 0.916167E-013
 0.916099E-013
 0.916029E-013
 0.915954E-013
 0.915877E-013
 0.915798E-013
 0.915715E-013
 0.915630E-013
 0.915542E-013
 0.915452E-013
 0.915360E-013
 0.915265E-013
 0.915169E-013
 0.915070E-013
 0.914970E-013
 0.914868E-013
 0.914764E-013
 0.914659E-013
 0.914553E-013
 0.914445E-013
 0.914336E-013
 0.914225E-013
 0.914114E-013
 0.914002E-013
 0.913888E-013
 0.913774E-013
 0.913659E-013
 0.913543E-013
 0.913427E-013
 0.913310E-013
 0.913192E-013
 0.913074E-013
 0.912955E-013
 0.912836E-013
 0.912716E-013
 0.912595E-013
 0.912475E-013
 0.912353E-013
 0.912232E-013
 0.912110E-013
 0.911988E-013
 0.911865E-013
 0.911739E-013
 0.911636E-013
 0.911400E-013
 0.911804E-013
 0.909706E-013
 0.915122E-013
 0.915892E-013
 0.908911E-013
 0.911400E-013
 0.910693E-013
 0.910810E-013
 0.910757E-013
 0.910733E-013
 0.910705E-013
 0.910677E-013
 0.910650E-013
 0.910622E-013
 0.910595E-013
 0.910568E-013
 0.910541E-013
 0.910514E-013
 0.910487E-013
 0.910460E-013
 0.910434E-013
 0.910407E-013
 0.910381E-013
 0.910355E-013
 0.910329E-013
 0.910303E-013
 0.910278E-013
 0.910252E-013
 0.910227E-013
 0.910202E-013
 0.910178E-013
 0.910153E-013
 0.910129E-013
 0.910105E-013
 0.910082E-013
 0.910059E-013
 0.910036E-013
 0.910013E-013
 0.909991E-013
 0.909970E-013
 0.909949E-013
 0.909928E-013
 0.909908E-013
 0.909889E-013
 0.909870E-013
 0.909851E-013
 0.909833E-013
 0.909816E-013
 0.909800E-013
 0.909784E-013
 0.909769E-013
 0.909755E-013
 0.909741E-013
 0.909728E-013
 0.909717E-013
 0.909705E-013
 0.909695E-013
 0.909686E-013
 0.909677E-013
 0.909670E-013
 0.909663E-013
 0.909657E-013
 0.909652E-013
 0.909649E-013
 0.909646E-013
 0.909644E-013
 0.909643E-013
 0.909643E-013
 0.909644E-013
 0.909646E-013
 0.909649E-013
 0.909652E-013
 0.909657E-013
 0.909663E-013
 0.909670E-013
 0.909677E-013
 0.909686E-013
 0.909695E-013
 0.909705E-013
 0.909717E-013
 0.909729E-013
 0.909741E-013
 0.909755E-013
 0.909769E-013
 0.909784E-013
 0.909800E-013
 0.909816E-013
 0.909834E-013
 0.909851E-013
 0.909870E-013
 0.909889E-013
 0.909908E-013
 0.909928E-013
 0.909949E-013
 0.909970E-013
 0.909991E-013
 0.910013E-013
 0.910036E-013
 0.910059E-013
 0.910082E-013
 0.910105E-013
 0.910129E-013
 0.910153E-013
 0.910178E-013
 0.910202E-013
 0.910227E-013
 0.910252E-013
 0.910278E-013
 0.910303E-013
 0.910329E-013
 0.910355E-013
 0.910381E-013
 0.910408E-013
 0.910434E-013
 0.910461E-013
 0.910487E-013
 0.910514E-013
 0.910541E-013
 0.910568E-013
 0.910595E-013
 0.910622E-013
 0.910650E-013
 0.910677E-013
 0.910705E-013
 0.910733E-013
 0.910757E-013
 0.910810E-013
 0.910693E-013
 0.911400E-013
 0.908912E-013
 0.915892E-013
 0.916957E-013
 0.908568E-013
 0.911636E-013
 0.910810E-013
 0.910993E-013
 0.910966E-013
 0.910976E-013
 0.910981E-013
 0.910986E-013
 0.910991E-013
 0.910996E-013
 0.911001E-013
 0.911005E-013
 0.911010E-013
 0.911015E-013
 0.911020E-013
 0.911025E-013
 0.911030E-013
 0.911035E-013
 0.911039E-013
 0.911044E-013
 0.911049E-013
 0.911054E-013
 0.911058E-013
 0.911063E-013
 0.911068E-013
 0.911072E-013
 0.911077E-013
 0.911081E-013
 0.911086E-013
 0.911090E-013
 0.911094E-013
 0.911099E-013
 0.911103E-013
 0.911107E-013
 0.911111E-013
 0.911115E-013
 0.911119E-013
 0.911123E-013
 0.911126E-013
 0.911130E-013
 0.911134E-013
 0.911137E-013
 0.911140E-013
 0.911144E-013
 0.911147E-013
 0.911150E-013
 0.911152E-013
 0.911155E-013
 0.911158E-013
 0.911160E-013
 0.911162E-013
 0.911165E-013
 0.911166E-013
 0.911168E-013
 0.911170E-013
 0.911171E-013
 0.911173E-013
 0.911174E-013
 0.911175E-013
 0.911175E-013
 0.911176E-013
 0.911176E-013
 0.911176E-013
 0.911176E-013
 0.911176E-013
 0.911176E-013
 0.911175E-013
 0.911175E-013
 0.911174E-013
 0.911173E-013
 0.911171E-013
 0.911170E-013
 0.911168E-013
 0.911166E-013
 0.911165E-013
 0.911162E-013
 0.911160E-013
 0.911158E-013
 0.911155E-013
 0.911152E-013
 0.911150E-013
 0.911147E-013
 0.911144E-013
 0.911140E-013
 0.911137E-013
 0.911134E-013
 0.911130E-013
 0.911126E-013
 0.911123E-013
 0.911119E-013
 0.911115E-013
 0.911111E-013
 0.911107E-013
 0.911103E-013
 0.911099E-013
 0.911094E-013
 0.911090E-013
 0.911086E-013
 0.911081E-013
 0.911077E-013
 0.911072E-013
 0.911068E-013
 0.911063E-013
 0.911058E-013
 0.911054E-013
 0.911049E-013
 0.911044E-013
 0.911040E-013
 0.911035E-013
 0.911030E-013
 0.911025E-013
 0.911020E-013
 0.911015E-013
 0.911010E-013
 0.911005E-013
 0.911001E-013
 0.910996E-013
 0.910991E-013
 0.910986E-013
 0.910981E-013
 0.910976E-013
 0.910966E-013
 0.910993E-013
 0.910810E-013
 0.911636E-013
 0.908568E-013
 0.916957E-013
 0.917962E-013
 0.908133E-013
 0.911739E-013
 0.910757E-013
 0.910966E-013
 0.910928E-013
 0.910933E-013
 0.910932E-013
 0.910931E-013
 0.910930E-013
 0.910930E-013
 0.910929E-013
 0.910928E-013
 0.910927E-013
 0.910926E-013
 0.910926E-013
 0.910925E-013
 0.910924E-013
 0.910924E-013
 0.910923E-013
 0.910922E-013
 0.910921E-013
 0.910921E-013
 0.910920E-013
 0.910919E-013
 0.910919E-013
 0.910918E-013
 0.910917E-013
 0.910917E-013
 0.910916E-013
 0.910916E-013
 0.910915E-013
 0.910914E-013
 0.910914E-013
 0.910913E-013
 0.910913E-013
 0.910912E-013
 0.910912E-013
 0.910911E-013
 0.910911E-013
 0.910910E-013
 0.910910E-013
 0.910909E-013
 0.910909E-013
 0.910909E-013
 0.910908E-013
 0.910908E-013
 0.910908E-013
 0.910907E-013
 0.910907E-013
 0.910907E-013
 0.910907E-013
 0.910906E-013
 0.910906E-013
 0.910906E-013
 0.910906E-013
 0.910906E-013
 0.910906E-013
 0.910906E-013
 0.910905E-013
 0.910905E-013
 0.910905E-013
 0.910905E-013
 0.910905E-013
 0.910905E-013
 0.910905E-013
 0.910905E-013
 0.910905E-013
 0.910905E-013
 0.910906E-013
 0.910906E-013
 0.910906E-013
 0.910906E-013
 0.910906E-013
 0.910906E-013
 0.910906E-013
 0.910907E-013
 0.910907E-013
 0.910907E-013
 0.910907E-013
 0.910908E-013
 0.910908E-013
 0.910908E-013
 0.910909E-013
 0.910909E-013
 0.910909E-013
 0.910910E-013
 0.910910E-013
 0.910911E-013
 0.910911E-013
 0.910912E-013
 0.910912E-013
 0.910913E-013
 0.910913E-013
 0.910914E-013
 0.910914E-013
 0.910915E-013
 0.910916E-013
 0.910916E-013
 0.910917E-013
 0.910917E-013
 0.910918E-013
 0.910919E-013
 0.910919E-013
 0.910920E-013
 0.910921E-013
 0.910921E-013
 0.910922E-013
 0.910923E-013
 0.910924E-013
 0.910924E-013
 0.910925E-013
 0.910926E-013
 0.910927E-013
 0.910927E-013
 0.910928E-013
 0.910929E-013
 0.910930E-013
 0.910930E-013
 0.910931E-013
 0.910932E-013
 0.910933E-013
 0.910929E-013
 0.910966E-013
 0.910757E-013
 0.911739E-013
 0.908133E-013
 0.917962E-013
 0.918974E-013
 0.907715E-013
 0.911865E-013
 0.910733E-013
 0.910976E-013
 0.910933E-013
 0.910940E-013
 0.910939E-013
 0.910939E-013
 0.910939E-013
 0.910939E-013
 0.910939E-013
 0.910940E-013
 0.910940E-013
 0.910940E-013
 0.910940E-013
 0.910940E-013
 0.910940E-013
 0.910940E-013
 0.910940E-013
 0.910940E-013
 0.910941E-013
 0.910941E-013
 0.910941E-013
 0.910941E-013
 0.910941E-013
 0.910941E-013
 0.910941E-013
 0.910941E-013
 0.910942E-013
 0.910942E-013
 0.910942E-013
 0.910942E-013
 0.910942E-013
 0.910942E-013
 0.910943E-013
 0.910943E-013
 0.910943E-013
 0.910943E-013
 0.910943E-013
 0.910943E-013
 0.910944E-013
 0.910944E-013
 0.910944E-013
 0.910944E-013
 0.910944E-013
 0.910945E-013
 0.910945E-013
 0.910945E-013
 0.910945E-013
 0.910945E-013
 0.910945E-013
 0.910946E-013
 0.910946E-013
 0.910946E-013
 0.910946E-013
 0.910946E-013
 0.910946E-013
 0.910946E-013
 0.910946E-013
 0.910947E-013
 0.910947E-013
 0.910947E-013
 0.910947E-013
 0.910947E-013
 0.910947E-013
 0.910947E-013
 0.910947E-013
 0.910946E-013
 0.910946E-013
 0.910946E-013
 0.910946E-013
 0.910946E-013
 0.910946E-013
 0.910946E-013
 0.910946E-013
 0.910946E-013
 0.910945E-013
 0.910945E-013
 0.910945E-013
 0.910945E-013
 0.910945E-013
 0.910944E-013
 0.910944E-013
 0.910944E-013
 0.910944E-013
 0.910944E-013
 0.910944E-013
 0.910943E-013
 0.910943E-013
 0.910943E-013
 0.910943E-013
 0.910943E-013
 0.910942E-013
 0.910942E-013
 0.910942E-013
 0.910942E-013
 0.910942E-013
 0.910942E-013
 0.910941E-013
 0.910941E-013
 0.910941E-013
 0.910941E-013
 0.910941E-013
 0.910941E-013
 0.910941E-013
 0.910941E-013
 0.910940E-013
 0.910940E-013
 0.910940E-013
 0.910940E-013
 0.910940E-013
 0.910940E-013
 0.910940E-013
 0.910940E-013
 0.910940E-013
 0.910940E-013
 0.910939E-013
 0.910939E-013
 0.910939E-013
 0.910939E-013
 0.910940E-013
 0.910933E-013
 0.910976E-013
 0.910733E-013
 0.911865E-013
 0.907716E-013
 0.918973E-013
 0.919982E-013
 0.907296E-013
 0.911988E-013
 0.910705E-013
 0.910981E-013
 0.910932E-013
 0.910939E-013
 0.910938E-013
 0.910938E-013
 0.910938E-013
 0.910938E-013
 0.910938E-013
 0.910938E-013
 0.910938E-013
 0.910938E-013
 0.910938E-013
 0.910938E-013
 0.910938E-013
 0.910938E-013
 0.910938E-013
 0.910938E-013
 0.910938E-013
 0.910938E-013
 0.910938E-013
 0.910938E-013
 0.910938E-013
 0.910938E-013
 0.910938E-013
 0.910938E-013
 0.910938E-013
 0.910938E-013
 0.910939E-013
 0.910939E-013
 0.910939E-013
 0.910939E-013
 0.910939E-013
 0.910939E-013
 0.910939E-013
 0.910939E-013
 0.910939E-013
 0.910939E-013
 0.910940E-013
 0.910940E-013
 0.910940E-013
 0.910940E-013
 0.910940E-013
 0.910940E-013
 0.910940E-013
 0.910941E-013
 0.910941E-013
 0.910941E-013
 0.910941E-013
 0.910941E-013
 0.910941E-013
 0.910941E-013
 0.910942E-013
 0.910942E-013
 0.910942E-013
 0.910942E-013
 0.910942E-013
 0.910942E-013
 0.910942E-013
 0.910942E-013
 0.910942E-013
 0.910942E-013
 0.910942E-013
 0.910942E-013
 0.910942E-013
 0.910942E-013
 0.910942E-013
 0.910942E-013
 0.910942E-013
 0.910942E-013
 0.910941E-013
 0.910941E-013
 0.910941E-013
 0.910941E-013
 0.910941E-013
 0.910941E-013
 0.910941E-013
 0.910941E-013
 0.910940E-013
 0.910940E-013
 0.910940E-013
 0.910940E-013
 0.910940E-013
 0.910940E-013
 0.910940E-013
 0.910939E-013
 0.910939E-013
 0.910939E-013
 0.910939E-013
 0.910939E-013
 0.910939E-013
 0.910939E-013
 0.910939E-013
 0.910939E-013
 0.910939E-013
 0.910938E-013
 0.910938E-013
 0.910938E-013
 0.910938E-013
 0.910938E-013
 0.910938E-013
 0.910938E-013
 0.910938E-013
 0.910938E-013
 0.910938E-013
 0.910938E-013
 0.910938E-013
 0.910938E-013
 0.910938E-013
 0.910938E-013
 0.910938E-013
 0.910938E-013
 0.910938E-013
 0.910938E-013
 0.910938E-013
 0.910938E-013
 0.910938E-013
 0.910938E-013
 0.910939E-013
 0.910932E-013
 0.910981E-013
 0.910705E-013
 0.911988E-013
 0.907297E-013
 0.919981E-013
 0.920987E-013
 0.906879E-013
 0.912110E-013
 0.910677E-013
 0.910986E-013
 0.910931E-013
 0.910939E-013
 0.910938E-013
 0.910938E-013
 0.910938E-013
 0.910938E-013
 0.910938E-013
 0.910938E-013
 0.910938E-013
 0.910938E-013
 0.910938E-013
 0.910938E-013
 0.910938E-013
 0.910938E-013
 0.910938E-013
 0.910938E-013
 0.910938E-013
 0.910938E-013
 0.910938E-013
 0.910939E-013
 0.910939E-013
 0.910939E-013
 0.910939E-013
 0.910939E-013
 0.910939E-013
 0.910939E-013
 0.910939E-013
 0.910939E-013
 0.910939E-013
 0.910939E-013
 0.910940E-013
 0.910940E-013
 0.910940E-013
 0.910940E-013
 0.910940E-013
 0.910940E-013
 0.910940E-013
 0.910941E-013
 0.910941E-013
 0.910941E-013
 0.910941E-013
 0.910941E-013
 0.910942E-013
 0.910942E-013
 0.910942E-013
 0.910942E-013
 0.910942E-013
 0.910942E-013
 0.910943E-013
 0.910943E-013
 0.910943E-013
 0.910943E-013
 0.910943E-013
 0.910943E-013
 0.910943E-013
 0.910943E-013
 0.910943E-013
 0.910943E-013
 0.910943E-013
 0.910943E-013
 0.910943E-013
 0.910943E-013
 0.910943E-013
 0.910943E-013
 0.910943E-013
 0.910943E-013
 0.910943E-013
 0.910943E-013
 0.910943E-013
 0.910943E-013
 0.910942E-013
 0.910942E-013
 0.910942E-013
 0.910942E-013
 0.910942E-013
 0.910942E-013
 0.910941E-013
 0.910941E-013
 0.910941E-013
 0.910941E-013
 0.910941E-013
 0.910941E-013
 0.910940E-013
 0.910940E-013
 0.910940E-013
 0.910940E-013
 0.910940E-013
 0.910940E-013
 0.910939E-013
 0.910939E-013
 0.910939E-013
 0.910939E-013
 0.910939E-013
 0.910939E-013
 0.910939E-013
 0.910939E-013
 0.910939E-013
 0.910939E-013
 0.910939E-013
 0.910939E-013
 0.910939E-013
 0.910938E-013
 0.910938E-013
 0.910938E-013
 0.910938E-013
 0.910938E-013
 0.910938E-013
 0.910938E-013
 0.910938E-013
 0.910938E-013
 0.910938E-013
 0.910938E-013
 0.910938E-013
 0.910938E-013
 0.910938E-013
 0.910938E-013
 0.910939E-013
 0.910931E-013
 0.910986E-013
 0.910677E-013
 0.912110E-013
 0.906879E-013
 0.920987E-013
 0.921990E-013
 0.906462E-013
 0.912232E-013
 0.910650E-013
 0.910991E-013
 0.910930E-013
 0.910939E-013
 0.910938E-013
 0.910938E-013
 0.910938E-013
 0.910938E-013
 0.910938E-013
 0.910938E-013
 0.910938E-013
 0.910938E-013
 0.910938E-013
 0.910938E-013
 0.910938E-013
 0.910938E-013
 0.910938E-013
 0.910938E-013
 0.910938E-013
 0.910938E-013
 0.910939E-013
 0.910939E-013
 0.910939E-013
 0.910939E-013
 0.910939E-013
 0.910939E-013
 0.910939E-013
 0.910939E-013
 0.910939E-013
 0.910939E-013
 0.910939E-013
 0.910940E-013
 0.910940E-013
 0.910940E-013
 0.910940E-013
 0.910940E-013
 0.910940E-013
 0.910941E-013
 0.910941E-013
 0.910941E-013
 0.910941E-013
 0.910941E-013
 0.910942E-013
 0.910942E-013
 0.910942E-013
 0.910942E-013
 0.910943E-013
 0.910943E-013
 0.910943E-013
 0.910943E-013
 0.910943E-013
 0.910944E-013
 0.910944E-013
 0.910944E-013
 0.910944E-013
 0.910944E-013
 0.910944E-013
 0.910944E-013
 0.910944E-013
 0.910944E-013
 0.910944E-013
 0.910944E-013
 0.910944E-013
 0.910944E-013
 0.910944E-013
 0.910944E-013
 0.910944E-013
 0.910944E-013
 0.910944E-013
 0.910944E-013
 0.910944E-013
 0.910943E-013
 0.910943E-013
 0.910943E-013
 0.910943E-013
 0.910943E-013
 0.910942E-013
 0.910942E-013
 0.910942E-013
 0.910942E-013
 0.910942E-013
 0.910941E-013
 0.910941E-013
 0.910941E-013
 0.910941E-013
 0.910941E-013
 0.910940E-013
 0.910940E-013
 0.910940E-013
 0.910940E-013
 0.910940E-013
 0.910940E-013
 0.910939E-013
 0.910939E-013
 0.910939E-013
 0.910939E-013
 0.910939E-013
 0.910939E-013
 0.910939E-013
 0.910939E-013
 0.910939E-013
 0.910939E-013
 0.910939E-013
 0.910938E-013
 0.910938E-013
 0.910938E-013
 0.910938E-013
 0.910938E-013
 0.910938E-013
 0.910938E-013
 0.910938E-013
 0.910938E-013
 0.910938E-013
 0.910938E-013
 0.910938E-013
 0.910938E-013
 0.910938E-013
 0.910938E-013
 0.910939E-013
 0.910930E-013
 0.910991E-013
 0.910650E-013
 0.912232E-013
 0.906463E-013
 0.921990E-013
 0.922990E-013
 0.906048E-013
 0.912354E-013
 0.910622E-013
 0.910996E-013
 0.910930E-013
 0.910939E-013
 0.910938E-013
 0.910938E-013
 0.910938E-013
 0.910938E-013
 0.910938E-013
 0.910938E-013
 0.910938E-013
 0.910938E-013
 0.910938E-013
 0.910938E-013
 0.910938E-013
 0.910938E-013
 0.910938E-013
 0.910938E-013
 0.910938E-013
 0.910939E-013
 0.910939E-013
 0.910939E-013
 0.910939E-013
 0.910939E-013
 0.910939E-013
 0.910939E-013
 0.910939E-013
 0.910939E-013
 0.910939E-013
 0.910940E-013
 0.910940E-013
 0.910940E-013
 0.910940E-013
 0.910940E-013
 0.910940E-013
 0.910941E-013
 0.910941E-013
 0.910941E-013
 0.910941E-013
 0.910942E-013
 0.910942E-013
 0.910942E-013
 0.910942E-013
 0.910943E-013
 0.910943E-013
 0.910943E-013