# vtk DataFile Version 3.0
Solution data
ASCII
DATASET STRUCTURED_GRID
DIMENSIONS 128 128 1
POINTS 16384  double
      0.000004      0.000004      0.000000
      0.000012      0.000004      0.000000
      0.000020      0.000004      0.000000
      0.000027      0.000004      0.000000
      0.000035      0.000004      0.000000
      0.000043      0.000004      0.000000
      0.000051      0.000004      0.000000
      0.000059      0.000004      0.000000
      0.000066      0.000004      0.000000
      0.000074      0.000004      0.000000
      0.000082      0.000004      0.000000
      0.000090      0.000004      0.000000
      0.000098      0.000004      0.000000
      0.000105      0.000004      0.000000
      0.000113      0.000004      0.000000
      0.000121      0.000004      0.000000
      0.000129      0.000004      0.000000
      0.000137      0.000004      0.000000
      0.000145      0.000004      0.000000
      0.000152      0.000004      0.000000
      0.000160      0.000004      0.000000
      0.000168      0.000004      0.000000
      0.000176      0.000004      0.000000
      0.000184      0.000004      0.000000
      0.000191      0.000004      0.000000
      0.000199      0.000004      0.000000
      0.000207      0.000004      0.000000
      0.000215      0.000004      0.000000
      0.000223      0.000004      0.000000
      0.000230      0.000004      0.000000
      0.000238      0.000004      0.000000
      0.000246      0.000004      0.000000
      0.000254      0.000004      0.000000
      0.000262      0.000004      0.000000
      0.000270      0.000004      0.000000
      0.000277      0.000004      0.000000
      0.000285      0.000004      0.000000
      0.000293      0.000004      0.000000
      0.000301      0.000004      0.000000
      0.000309      0.000004      0.000000
      0.000316      0.000004      0.000000
      0.000324      0.000004      0.000000
      0.000332      0.000004      0.000000
      0.000340      0.000004      0.000000
      0.000348      0.000004      0.000000
      0.000355      0.000004      0.000000
      0.000363      0.000004      0.000000
      0.000371      0.000004      0.000000
      0.000379      0.000004      0.000000
      0.000387      0.000004      0.000000
      0.000395      0.000004      0.000000
      0.000402      0.000004      0.000000
      0.000410      0.000004      0.000000
      0.000418      0.000004      0.000000
      0.000426      0.000004      0.000000
      0.000434      0.000004      0.000000
      0.000441      0.000004      0.000000
      0.000449      0.000004      0.000000
      0.000457      0.000004      0.000000
      0.000465      0.000004      0.000000
      0.000473      0.000004      0.000000
      0.000480      0.000004      0.000000
      0.000488      0.000004      0.000000
      0.000496      0.000004      0.000000
      0.000504      0.000004      0.000000
      0.000512      0.000004      0.000000
      0.000520      0.000004      0.000000
      0.000527      0.000004      0.000000
      0.000535      0.000004      0.000000
      0.000543      0.000004      0.000000
      0.000551      0.000004      0.000000
      0.000559      0.000004      0.000000
      0.000566      0.000004      0.000000
      0.000574      0.000004      0.000000
      0.000582      0.000004      0.000000
      0.000590      0.000004      0.000000
      0.000598      0.000004      0.000000
      0.000605      0.000004      0.000000
      0.000613      0.000004      0.000000
      0.000621      0.000004      0.000000
      0.000629      0.000004      0.000000
      0.000637      0.000004      0.000000
      0.000645      0.000004      0.000000
      0.000652      0.000004      0.000000
      0.000660      0.000004      0.000000
      0.000668      0.000004      0.000000
      0.000676      0.000004      0.000000
      0.000684      0.000004      0.000000
      0.000691      0.000004      0.000000
      0.000699      0.000004      0.000000
      0.000707      0.000004      0.000000
      0.000715      0.000004      0.000000
      0.000723      0.000004      0.000000
      0.000730      0.000004      0.000000
      0.000738      0.000004      0.000000
      0.000746      0.000004      0.000000
      0.000754      0.000004      0.000000
      0.000762      0.000004      0.000000
      0.000770      0.000004      0.000000
      0.000777      0.000004      0.000000
      0.000785      0.000004      0.000000
      0.000793      0.000004      0.000000
      0.000801      0.000004      0.000000
      0.000809      0.000004      0.000000
      0.000816      0.000004      0.000000
      0.000824      0.000004      0.000000
      0.000832      0.000004      0.000000
      0.000840      0.000004      0.000000
      0.000848      0.000004      0.000000
      0.000855      0.000004      0.000000
      0.000863      0.000004      0.000000
      0.000871      0.000004      0.000000
      0.000879      0.000004      0.000000
      0.000887      0.000004      0.000000
      0.000895      0.000004      0.000000
      0.000902      0.000004      0.000000
      0.000910      0.000004      0.000000
      0.000918      0.000004      0.000000
      0.000926      0.000004      0.000000
      0.000934      0.000004      0.000000
      0.000941      0.000004      0.000000
      0.000949      0.000004      0.000000
      0.000957      0.000004      0.000000
      0.000965      0.000004      0.000000
      0.000973      0.000004      0.000000
      0.000980      0.000004      0.000000
      0.000988      0.000004      0.000000
      0.000996      0.000004      0.000000
      0.000004      0.000012      0.000000
      0.000012      0.000012      0.000000
      0.000020      0.000012      0.000000
      0.000027      0.000012      0.000000
      0.000035      0.000012      0.000000
      0.000043      0.000012      0.000000
      0.000051      0.000012      0.000000
      0.000059      0.000012      0.000000
      0.000066      0.000012      0.000000
      0.000074      0.000012      0.000000
      0.000082      0.000012      0.000000
      0.000090      0.000012      0.000000
      0.000098      0.000012      0.000000
      0.000105      0.000012      0.000000
      0.000113      0.000012      0.000000
      0.000121      0.000012      0.000000
      0.000129      0.000012      0.000000
      0.000137      0.000012      0.000000
      0.000145      0.000012      0.000000
      0.000152      0.000012      0.000000
      0.000160      0.000012      0.000000
      0.000168      0.000012      0.000000
      0.000176      0.000012      0.000000
      0.000184      0.000012      0.000000
      0.000191      0.000012      0.000000
      0.000199      0.000012      0.000000
      0.000207      0.000012      0.000000
      0.000215      0.000012      0.000000
      0.000223      0.000012      0.000000
      0.000230      0.000012      0.000000
      0.000238      0.000012      0.000000
      0.000246      0.000012      0.000000
      0.000254      0.000012      0.000000
      0.000262      0.000012      0.000000
      0.000270      0.000012      0.000000
      0.000277      0.000012      0.000000
      0.000285      0.000012      0.000000
      0.000293      0.000012      0.000000
      0.000301      0.000012      0.000000
      0.000309      0.000012      0.000000
      0.000316      0.000012      0.000000
      0.000324      0.000012      0.000000
      0.000332      0.000012      0.000000
      0.000340      0.000012      0.000000
      0.000348      0.000012      0.000000
      0.000355      0.000012      0.000000
      0.000363      0.000012      0.000000
      0.000371      0.000012      0.000000
      0.000379      0.000012      0.000000
      0.000387      0.000012      0.000000
      0.000395      0.000012      0.000000
      0.000402      0.000012      0.000000
      0.000410      0.000012      0.000000
      0.000418      0.000012      0.000000
      0.000426      0.000012      0.000000
      0.000434      0.000012      0.000000
      0.000441      0.000012      0.000000
      0.000449      0.000012      0.000000
      0.000457      0.000012      0.000000
      0.000465      0.000012      0.000000
      0.000473      0.000012      0.000000
      0.000480      0.000012      0.000000
      0.000488      0.000012      0.000000
      0.000496      0.000012      0.000000
      0.000504      0.000012      0.000000
      0.000512      0.000012      0.000000
      0.000520      0.000012      0.000000
      0.000527      0.000012      0.000000
      0.000535      0.000012      0.000000
      0.000543      0.000012      0.000000
      0.000551      0.000012      0.000000
      0.000559      0.000012      0.000000
      0.000566      0.000012      0.000000
      0.000574      0.000012      0.000000
      0.000582      0.000012      0.000000
      0.000590      0.000012      0.000000
      0.000598      0.000012      0.000000
      0.000605      0.000012      0.000000
      0.000613      0.000012      0.000000
      0.000621      0.000012      0.000000
      0.000629      0.000012      0.000000
      0.000637      0.000012      0.000000
      0.000645      0.000012      0.000000
      0.000652      0.000012      0.000000
      0.000660      0.000012      0.000000
      0.000668      0.000012      0.000000
      0.000676      0.000012      0.000000
      0.000684      0.000012      0.000000
      0.000691      0.000012      0.000000
      0.000699      0.000012      0.000000
      0.000707      0.000012      0.000000
      0.000715      0.000012      0.000000
      0.000723      0.000012      0.000000
      0.000730      0.000012      0.000000
      0.000738      0.000012      0.000000
      0.000746      0.000012      0.000000
      0.000754      0.000012      0.000000
      0.000762      0.000012      0.000000
      0.000770      0.000012      0.000000
      0.000777      0.000012      0.000000
      0.000785      0.000012      0.000000
[...]
POINT_DATA 16384
SCALARS rhoe double
LOOKUP_TABLE default
 0.916183E-013
 0.912635E-013
 0.915369E-013
 0.915658E-013
 0.916744E-013
 0.917605E-013
 0.918517E-013
 0.919416E-013
 0.920314E-013
 0.921209E-013
 0.922101E-013
 0.922991E-013
 0.923877E-013
 0.924761E-013
 0.925641E-013
 0.926517E-013
 0.927389E-013
 0.928258E-013
 0.929122E-013
 0.929982E-013
 0.930836E-013
 0.931686E-013
 0.932529E-013
 0.933366E-013
 0.934197E-013
 0.935021E-013
 0.935837E-013
 0.936645E-013
 0.937445E-013
 0.938235E-013
 0.939015E-013
 0.939785E-013
 0.940543E-013
 0.941290E-013
 0.942024E-013
 0.942744E-013
 0.943450E-013
 0.944141E-013
 0.944816E-013
 0.945474E-013
 0.946115E-013
 0.946737E-013
 0.947341E-013
 0.947924E-013
 0.948486E-013
 0.949026E-013
 0.949543E-013
 0.950038E-013
 0.950507E-013
 0.950952E-013
 0.951371E-013
 0.951763E-013
 0.952128E-013
 0.952465E-013
 0.952774E-013
 0.953053E-013
 0.953303E-013
 0.953522E-013
 0.953712E-013
 0.953870E-013
 0.953996E-013
 0.954092E-013
 0.954156E-013
 0.954187E-013
 0.954187E-013
 0.954156E-013
 0.954092E-013
 0.953997E-013
 0.953870E-013
 0.953712E-013
 0.953523E-013
 0.953303E-013
 0.953053E-013
 0.952774E-013
 0.952465E-013
 0.952128E-013
 0.951763E-013
 0.951371E-013
 0.950952E-013
 0.950508E-013
 0.950038E-013
 0.949544E-013
 0.949026E-013
 0.948486E-013
 0.947924E-013
 0.947341E-013
 0.946738E-013
 0.946115E-013
 0.945474E-013
 0.944816E-013
 0.944141E-013
 0.943450E-013
 0.942744E-013
 0.942024E-013
 0.941290E-013
 0.940544E-013
 0.939785E-013
 0.939016E-013
 0.938235E-013
 0.937445E-013
 0.936646E-013
 0.935838E-013
 0.935021E-013
 0.934198E-013
 0.933367E-013
 0.932529E-013
 0.931686E-013
 0.930836E-013
 0.929982E-013
 0.929122E-013
 0.928258E-013
 0.927390E-013
 0.926517E-013
 0.925641E-013
 0.924761E-013
 0.923877E-013
 0.922991E-013
 0.922101E-013
 0.921209E-013
 0.920314E-013
 0.919416E-013
 0.918517E-013
 0.917605E-013
 0.916744E-013
 0.915658E-013
 0.915368E-013
 0.912635E-013
 0.916183E-013
 0.912635E-013
 0.907946E-013
 0.909464E-013
 0.908163E-013
 0.907887E-013
 0.907305E-013
 0.906802E-013
 0.906284E-013
 0.905771E-013
 0.905258E-013
 0.904747E-013
 0.904238E-013
 0.903731E-013
 0.903225E-013
 0.902722E-013
 0.902220E-013
 0.901721E-013
 0.901224E-013
 0.900729E-013
 0.900237E-013
 0.899748E-013
 0.899262E-013
 0.898779E-013
 0.898300E-013
 0.897824E-013
 0.897353E-013
 0.896885E-013
 0.896423E-013
 0.895965E-013
 0.895513E-013
 0.895066E-013
 0.894625E-013
 0.894190E-013
 0.893763E-013
 0.893343E-013
 0.892930E-013
 0.892525E-013
 0.892129E-013
 0.891743E-013
 0.891365E-013
 0.890998E-013
 0.890641E-013
 0.890295E-013
 0.889961E-013
 0.889639E-013
 0.889329E-013
 0.889032E-013
 0.888749E-013
 0.888480E-013
 0.888224E-013
 0.887984E-013
 0.887759E-013
 0.887550E-013
 0.887356E-013
 0.887179E-013
 0.887019E-013
 0.886876E-013
 0.886750E-013
 0.886641E-013
 0.886551E-013
 0.886478E-013
 0.886423E-013
 0.886387E-013
 0.886368E-013
 0.886368E-013
 0.886387E-013
 0.886423E-013
 0.886478E-013
 0.886551E-013
 0.886642E-013
 0.886750E-013
 0.886876E-013
 0.887019E-013
 0.887180E-013
 0.887357E-013
 0.887550E-013
 0.887759E-013
 0.887985E-013
 0.888225E-013
 0.888480E-013
 0.888749E-013
 0.889033E-013
 0.889329E-013
 0.889639E-013
 0.889962E-013
 0.890296E-013
 0.890642E-013
 0.890998E-013
 0.891366E-013
 0.891743E-013
 0.892130E-013
 0.892526E-013
 0.892930E-013
 0.893343E-013
 0.893763E-013
 0.894191E-013
 0.894625E-013
 0.895066E-013
 0.895513E-013
 0.895966E-013
 0.896423E-013
 0.896886E-013
 0.897353E-013
 0.897825E-013
 0.898301E-013
 0.898780E-013
 0.899263E-013
 0.899749E-013
 0.900238E-013
 0.900730E-013
 0.901224E-013
 0.901721E-013
 0.902221E-013
 0.902722E-013
 0.903226E-013
 0.903731E-013
 0.904239E-013
 0.904748E-013
 0.905259E-013
 0.905771E-013
 0.906284E-013
 0.906803E-013
 0.907305E-013
 0.907887E-013
 0.908163E-013
 0.909464E-013
 0.907946E-013
 0.912635E-013
 0.915369E-013
 0.909464E-013
 0.912611E-013
 0.911722E-013
 0.912291E-013
 0.912422E-013
 0.912663E-013
 0.912880E-013
 0.913100E-013
 0.913319E-013
 0.913538E-013
 0.913755E-013
 0.913972E-013
 0.914188E-013
 0.914403E-013
 0.914617E-013
 0.914831E-013
 0.915043E-013
 0.915254E-013
 0.915464E-013
 0.915673E-013
 0.915881E-013
 0.916087E-013
 0.916291E-013
 0.916494E-013
 0.916696E-013
 0.916895E-013
 0.917093E-013
 0.917288E-013
 0.917481E-013
 0.917672E-013
 0.917860E-013
 0.918045E-013
 0.918228E-013
 0.918407E-013
 0.918583E-013
 0.918755E-013
 0.918924E-013
 0.919089E-013
 0.919250E-013
 0.919407E-013
 0.919559E-013
 0.919707E-013
 0.919849E-013
 0.919987E-013
 0.920119E-013
 0.920245E-013
 0.920366E-013
 0.920481E-013
 0.920590E-013
 0.920692E-013
 0.920788E-013
 0.920877E-013
 0.920960E-013
 0.921035E-013
 0.921104E-013
 0.921165E-013
 0.921218E-013
 0.921265E-013
 0.921303E-013
 0.921334E-013
 0.921358E-013
 0.921373E-013
 0.921381E-013
 0.921381E-013
 0.921373E-013
 0.921358E-013
 0.921334E-013
 0.921303E-013
 0.921265E-013
 0.921218E-013
 0.921165E-013
 0.921103E-013
 0.921035E-013
 0.920960E-013
 0.920877E-013
 0.920788E-013
 0.920692E-013
 0.920589E-013
 0.920481E-013
 0.920366E-013
 0.920245E-013
 0.920118E-013
 0.919986E-013
 0.919849E-013
 0.919706E-013
 0.919559E-013
 0.919407E-013
 0.919250E-013
 0.919089E-013
 0.918924E-013
 0.918755E-013
 0.918583E-013
 0.918406E-013
 0.918227E-013
 0.918045E-013
 0.917859E-013
 0.917671E-013
 0.917481E-013
 0.917288E-013
 0.917092E-013
 0.916895E-013
 0.916695E-013
 0.916494E-013
 0.916291E-013
 0.916086E-013
 0.915880E-013
 0.915673E-013
 0.915464E-013
 0.915254E-013
 0.915043E-013
 0.914830E-013
 0.914617E-013
 0.914403E-013
 0.914188E-013
 0.913972E-013
 0.913755E-013
 0.913537E-013
 0.913319E-013
 0.913100E-013
 0.912879E-013
 0.912663E-013
 0.912422E-013
 0.912291E-013
 0.911722E-013
 0.912611E-013
 0.909464E-013
 0.915368E-013
 0.915658E-013
 0.908163E-013
 0.911722E-013
 0.910245E-013
 0.910611E-013
 0.910419E-013
 0.910371E-013
 0.910291E-013
 0.910218E-013
 0.910144E-013
 0.910070E-013
 0.909997E-013
 0.909923E-013
 0.909850E-013
 0.909778E-013
 0.909705E-013
 0.909633E-013
 0.909562E-013
 0.909490E-013
 0.909419E-013
 0.909349E-013
 0.909279E-013
 0.909209E-013
 0.909140E-013
 0.909071E-013
 0.909003E-013
 0.908936E-013
 0.908869E-013
 0.908803E-013
 0.908738E-013
 0.908673E-013
 0.908610E-013
 0.908547E-013
 0.908486E-013
 0.908425E-013
 0.908366E-013
 0.908307E-013
 0.908250E-013
 0.908195E-013
 0.908140E-013
 0.908087E-013
 0.908036E-013
 0.907986E-013
 0.907938E-013
 0.907891E-013
 0.907847E-013
 0.907804E-013
 0.907763E-013
 0.907725E-013
 0.907688E-013
 0.907653E-013
 0.907621E-013
 0.907591E-013
 0.907563E-013
 0.907537E-013
 0.907514E-013
 0.907494E-013
 0.907476E-013
 0.907460E-013
 0.907447E-013
 0.907436E-013
 0.907429E-013
 0.907423E-013
 0.907421E-013
 0.907421E-013
 0.907423E-013
 0.907429E-013
 0.907436E-013
 0.907447E-013
 0.907460E-013
 0.907476E-013
 0.907494E-013
 0.907514E-013
 0.907537E-013
 0.907563E-013
 0.907591E-013
 0.907621E-013
 0.907653E-013
 0.907688E-013
 0.907725E-013
 0.907763E-013
 0.907804E-013
 0.907847E-013
 0.907892E-013
 0.907938E-013
 0.907986E-013
 0.908036E-013
 0.908087E-013
 0.908140E-013
 0.908195E-013
 0.908250E-013
 0.908307E-013
 0.908366E-013
 0.908425E-013
 0.908486E-013
 0.908547E-013
 0.908610E-013
 0.908674E-013
 0.908738E-013
 0.908803E-013
 0.908869E-013
 0.908936E-013
 0.909003E-013
 0.909071E-013
 0.909140E-013
 0.909209E-013
 0.909279E-013
 0.909349E-013
 0.909419E-013
 0.909490E-013
 0.909562E-013
 0.909633E-013
 0.909705E-013
 0.909778E-013
 0.909851E-013
 0.909924E-013
 0.909997E-013
 0.910070E-013
 0.910144E-013
 0.910218E-013
 0.910292E-013
 0.910371E-013
 0.910420E-013
 0.910611E-013
 0.910245E-013
 0.911722E-013
 0.908163E-013
 0.915658E-013
 0.916744E-013
 0.907887E-013
 0.912291E-013
 0.910611E-013
 0.911169E-013
 0.911048E-013
 0.911101E-013
 0.911115E-013
 0.911137E-013
 0.911157E-013
 0.911178E-013
 0.911198E-013
 0.911219E-013
 0.911239E-013
 0.911259E-013
 0.911280E-013
 0.911300E-013
 0.911320E-013
 0.911339E-013
 0.911359E-013
 0.911379E-013
 0.911398E-013
 0.911418E-013
 0.911437E-013
 0.911456E-013
 0.911475E-013
 0.911494E-013
 0.911512E-013
 0.911531E-013
 0.911549E-013
 0.911567E-013
 0.911584E-013
 0.911602E-013
 0.911619E-013
 0.911636E-013
 0.911653E-013
 0.911669E-013
 0.911685E-013
 0.911700E-013
 0.911715E-013
 0.911730E-013
 0.911744E-013
 0.911758E-013
 0.911772E-013
 0.911785E-013
 0.911797E-013
 0.911809E-013
 0.911820E-013
 0.911831E-013
 0.911842E-013
 0.911851E-013
 0.911860E-013
 0.911869E-013
 0.911876E-013
 0.911884E-013
 0.911890E-013
 0.911896E-013
 0.911901E-013
 0.911905E-013
 0.911909E-013
 0.911912E-013
 0.911914E-013
 0.911915E-013
 0.911916E-013
 0.911916E-013
 0.911915E-013
 0.911914E-013
 0.911912E-013
 0.911909E-013
 0.911905E-013
 0.911901E-013
 0.911896E-013
 0.911890E-013
 0.911884E-013
 0.911876E-013
 0.911869E-013
 0.911860E-013
 0.911851E-013
 0.911842E-013
 0.911831E-013
 0.911820E-013
 0.911809E-013
 0.911797E-013
 0.911785E-013
 0.911772E-013
 0.911758E-013
 0.911744E-013
 0.911730E-013
 0.911715E-013
 0.911700E-013
 0.911685E-013
 0.911669E-013
 0.911652E-013
 0.911636E-013
 0.911619E-013
 0.911602E-013
 0.911584E-013
 0.911567E-013
 0.911549E-013
 0.911531E-013
 0.911512E-013
 0.911494E-013
 0.911475E-013
 0.911456E-013
 0.911437E-013
 0.911418E-013
 0.911398E-013
 0.911379E-013
 0.911359E-013
 0.911339E-013
 0.911320E-013
 0.911300E-013
 0.911280E-013
 0.911259E-013
 0.911239E-013
 0.911219E-013
 0.911198E-013
 0.911178E-013
 0.911157E-013
 0.911137E-013
 0.911115E-013
 0.911101E-013
 0.911048E-013
 0.911169E-013
 0.910611E-013
 0.912291E-013
 0.907887E-013
 0.916744E-013
 0.917605E-013
 0.907305E-013
 0.912422E-013
 0.910419E-013
 0.911048E-013
 0.910875E-013
 0.910908E-013
 0.910896E-013
 0.910892E-013
 0.910887E-013
 0.910882E-013
 0.910877E-013
 0.910872E-013
 0.910868E-013
 0.910863E-013
 0.910858E-013
 0.910853E-013
 0.910849E-013
 0.910844E-013
 0.910839E-013
 0.910835E-013
 0.910830E-013
 0.910826E-013
 0.910821E-013
 0.910817E-013
 0.910812E-013
 0.910808E-013
 0.910803E-013
 0.910799E-013
 0.910795E-013
 0.910791E-013
 0.910787E-013
 0.910782E-013
 0.910778E-013
 0.910774E-013
 0.910771E-013
 0.910767E-013
 0.910763E-013
 0.910760E-013
 0.910756E-013
 0.910753E-013
 0.910749E-013
 0.910746E-013
 0.910743E-013
 0.910740E-013
 0.910737E-013
 0.910734E-013
 0.910732E-013
 0.910729E-013
 0.910727E-013
 0.910725E-013
 0.910722E-013
 0.910720E-013
 0.910719E-013
 0.910717E-013
 0.910716E-013
 0.910714E-013
 0.910713E-013
 0.910712E-013
 0.910711E-013
 0.910711E-013
 0.910710E-013
 0.910710E-013
 0.910710E-013
 0.910710E-013
 0.910710E-013
 0.910710E-013
 0.910711E-013
 0.910711E-013
 0.910712E-013
 0.910713E-013
 0.910714E-013
 0.910716E-013
 0.910717E-013
 0.910719E-013
 0.910721E-013
 0.910722E-013
 0.910725E-013
 0.910727E-013
 0.910729E-013
 0.910732E-013
 0.910734E-013
 0.910737E-013
 0.910740E-013
 0.910743E-013
 0.910746E-013
 0.910749E-013
 0.910753E-013
 0.910756E-013
 0.910760E-013
 0.910763E-013
 0.910767E-013
 0.910771E-013
 0.910775E-013
 0.910778E-013
 0.910782E-013
 0.910787E-013
 0.910791E-013
 0.910795E-013
 0.910799E-013
 0.910803E-013
 0.910808E-013
 0.910812E-013
 0.910817E-013
 0.910821E-013
 0.910826E-013
 0.910830E-013
 0.910835E-013
 0.910839E-013
 0.910844E-013
 0.910849E-013
 0.910853E-013
 0.910858E-013
 0.910863E-013
 0.910868E-013
 0.910872E-013
 0.910877E-013
 0.910882E-013
 0.910887E-013
 0.910892E-013
 0.910896E-013
 0.910908E-013
 0.910875E-013
 0.911048E-013
 0.910420E-013
 0.912421E-013
 0.907305E-013
 0.917605E-013
 0.918517E-013
 0.906802E-013
 0.912663E-013
 0.910371E-013
 0.911101E-013
 0.910908E-013
 0.910953E-013
 0.910945E-013
 0.910948E-013
 0.910949E-013
 0.910950E-013
 0.910951E-013
 0.910952E-013
 0.910953E-013
 0.910954E-013
 0.910955E-013
 0.910956E-013
 0.910957E-013
 0.910958E-013
 0.910959E-013
 0.910959E-013
 0.910960E-013
 0.910961E-013
 0.910962E-013
 0.910963E-013
 0.910964E-013
 0.910965E-013
 0.910966E-013
 0.910967E-013
 0.910968E-013
 0.910969E-013
 0.910970E-013
 0.910970E-013
 0.910971E-013
 0.910972E-013
 0.910973E-013
 0.910974E-013
 0.910975E-013
 0.910975E-013
 0.910976E-013
 0.910977E-013
 0.910978E-013
 0.910978E-013
 0.910979E-013
 0.910980E-013
 0.910980E-013
 0.910981E-013
 0.910982E-013
 0.910982E-013
 0.910983E-013
 0.910983E-013
 0.910984E-013
 0.910984E-013
 0.910985E-013
 0.910985E-013
 0.910985E-013
 0.910986E-013
 0.910986E-013
 0.910986E-013
 0.910986E-013
 0.910986E-013
 0.910987E-013
 0.910987E-013
 0.910987E-013
 0.910987E-013
 0.910987E-013
 0.910987E-013
 0.910986E-013
 0.910986E-013
 0.910986E-013
 0.910986E-013
 0.910986E-013
 0.910985E-013
 0.910985E-013
 0.910985E-013
 0.910984E-013
 0.910984E-013
 0.910983E-013
 0.910983E-013
 0.910982E-013
 0.910982E-013
 0.910981E-013
 0.910980E-013
 0.910980E-013
 0.910979E-013
 0.910978E-013
 0.910978E-013
 0.910977E-013
 0.910976E-013
 0.910975E-013
 0.910975E-013
 0.910974E-013
 0.910973E-013
 0.910972E-013
 0.910971E-013
 0.910970E-013
 0.910970E-013
 0.910969E-013
 0.910968E-013
 0.910967E-013
 0.910966E-013
 0.910965E-013
 0.910964E-013
 0.910963E-013
 0.910962E-013
 0.910961E-013
 0.910960E-013
 0.910960E-013
 0.910959E-013
 0.910958E-013
 0.910957E-013
 0.910956E-013
 0.910955E-013
 0.910954E-013
 0.910953E-013
 0.910952E-013
 0.910951E-013
 0.910950E-013
 0.910949E-013
 0.910948E-013
 0.910945E-013
 0.910953E-013
 0.910908E-013
 0.911101E-013
 0.910371E-013
 0.912663E-013
 0.906803E-013
 0.918517E-013
 0.919416E-013
 0.906284E-013
 0.912880E-013
 0.910291E-013
 0.911115E-013
 0.910896E-013
 0.910945E-013
 0.910935E-013
 0.910937E-013
 0.910936E-013
 0.910936E-013
 0.910936E-013
 0.910936E-013
 0.910936E-013
 0.910936E-013
 0.910935E-013
 0.910935E-013
 0.910935E-013
 0.910935E-013
 0.910935E-013
 0.910935E-013
 0.910934E-013
 0.910934E-013
 0.910934E-013
 0.910934E-013
 0.910934E-013
 0.910934E-013
 0.910934E-013
 0.910933E-013
 0.910933E-013
 0.910933E-013
 0.910933E-013
 0.910933E-013
 0.910933E-013
 0.910933E-013
 0.910933E-013
 0.910933E-013
 0.910932E-013
 0.910932E-013
 0.910932E-013
 0.910932E-013
 0.910932E-013
 0.910932E-013
 0.910932E-013
 0.910932E-013
 0.910932E-013
 0.910932E-013
 0.910932E-013
 0.910932E-013
 0.910932E-013
 0.910932E-013
 0.910932E-013
 0.910932E-013
 0.910932E-013
 0.910932E-013
 0.910932E-013
 0.910932E-013
 0.910932E-013
 0.910932E-013
 0.910932E-013
 0.910932E-013
 0.910932E-013
 0.910932E-013
 0.910932E-013
 0.910932E-013
 0.910932E-013
 0.910932E-013
 0.910932E-013
 0.910932E-013
 0.910932E-013
 0.910932E-013
 0.910932E-013
 0.910932E-013
 0.910932E-013
 0.910932E-013
 0.910932E-013
 0.910932E-013
 0.910932E-013
 0.910932E-013
 0.910932E-013
 0.910932E-013
 0.910932E-013
 0.910932E-013
 0.910932E-013
 0.910932E-013
 0.910932E-013
 0.910932E-013
 0.910932E-013
 0.910932E-013
 0.910932E-013
 0.910932E-013
 0.910933E-013
 0.910933E-013
 0.910933E-013
 0.910933E-013
 0.910933E-013
 0.910933E-013
 0.910933E-013
 0.910933E-013
 0.910933E-013
 0.910934E-013
 0.910934E-013
 0.910934E-013
 0.910934E-013
 0.910934E-013
 0.910934E-013
 0.910934E-013
 0.910935E-013
 0.910935E-013
 0.910935E-013
 0.910935E-013
 0.910935E-013
 0.910935E-013
 0.910936E-013
 0.910936E-013
 0.910936E-013
 0.910936E-013
 0.910936E-013
 0.910936E-013
 0.910937E-013
 0.910935E-013
 0.910945E-013
 0.910896E-013
 0.911115E-013
 0.910292E-013
 0.912879E-013
 0.906285E-013
 0.919416E-013
 0.920314E-013
 0.905771E-013
 0.913100E-013
 0.910218E-013
 0.911137E-013
 0.910892E-013
 0.910948E-013
 0.910937E-013
 0.910939E-013
 0.910939E-013
 0.910939E-013
 0.910939E-013
 0.910939E-013
 0.910939E-013
 0.910939E-013
 0.910939E-013
 0.910939E-013
 0.910939E-013
 0.910939E-013
 0.910939E-013
 0.910939E-013
 0.910939E-013
 0.910939E-013
 0.910939E-013
 0.910939E-013
 0.910939E-013
 0.910939E-013
 0.910939E-013
 0.910939E-013
 0.910939E-013
 0.910940E-013
 0.910940E-013
 0.910940E-013
 0.910940E-013
 0.910940E-013
 0.910940E-013
 0.910940E-013
 0.910940E-013
 0.910940E-013
 0.910940E-013
 0.910940E-013
 0.910940E-013
 0.910940E-013
 0.910941E-013
 0.910941E-013
 0.910941E-013
 0.910941E-013
 0.910941E-013
 0.910941E-013
 0.910941E-013
 0.910941E-013
 0.910941E-013
 0.910941E-013
 0.910941E-013
 0.910941E-013
 0.910941E-013
 0.910942E-013
 0.910942E-013
 0.910942E-013
 0.910942E-013
 0.910942E-013
 0.910942E-013
 0.910942E-013
 0.910942E-013
 0.910942E-013
 0.910942E-013
 0.910942E-013
 0.910942E-013
 0.910942E-013
 0.910942E-013
 0.910942E-013
 0.910942E-013
 0.910941E-013
 0.910941E-013
 0.910941E-013
 0.910941E-013
 0.910941E-013
 0.910941E-013
 0.910941E-013
 0.910941E-013
 0.910941E-013
 0.910941E-013
 0.910941E-013
 0.910941E-013
 0.910941E-013
 0.910940E-013
 0.910940E-013
 0.910940E-013
 0.910940E-013
 0.910940E-013
 0.910940E-013
 0.910940E-013
 0.910940E-013
 0.910940E-013
 0.910940E-013
 0.910940E-013
 0.910940E-013
 0.910940E-013
 0.910939E-013
 0.910939E-013
 0.910939E-013
 0.910939E-013
 0.910939E-013
 0.910939E-013
 0.910939E-013
 0.910939E-013
 0.910939E-013
 0.910939E-013
 0.910939E-013
 0.910939E-013
 0.910939E-013
 0.910939E-013
 0.910939E-013
 0.910939E-013
 0.910939E-013
 0.910939E-013
 0.910939E-013
 0.910939E-013
 0.910939E-013
 0.910939E-013
 0.910937E-013
 0.910948E-013
 0.910892E-013
 0.911137E-013
 0.910218E-013
 0.913100E-013
 0.905771E-013
 0.920314E-013
 0.921209E-013
 0.905258E-013
 0.913319E-013
 0.910144E-013
 0.911157E-013
 0.910887E-013
 0.910949E-013
 0.910936E-013
 0.910939E-013
 0.910938E-013
 0.910938E-013
 0.910938E-013
 0.910938E-013
 0.910938E-013
 0.910938E-013
 0.910938E-013
 0.910938E-013
 0.910938E-013
 0.910938E-013
 0.910938E-013
 0.910938E-013
 0.910938E-013
 0.910938E-013
 0.910938E-013
 0.910938E-013
 0.910938E-013
 0.910938E-013
 0.910938E-013
 0.910938E-013
 0.910939E-013
 0.910939E-013
 0.910939E-013
 0.910939E-013
 0.910939E-013
 0.910939E-013
 0.910939E-013
 0.910939E-013
 0.910939E-013
 0.910939E-013
 0.910939E-013
 0.910939E-013
 0.910939E-013
 0.910939E-013
 0.910939E-013
 0.910939E-013
 0.910940E-013
 0.910940E-013
 0.910940E-013
 0.910940E-013
 0.910940E-013
 0.910940E-013
 0.910940E-013
 0.910940E-013
 0.910940E-013
 0.910940E-013
 0.910940E-013
 0.910940E-013
 0.910940E-013
 0.910940E-013
 0.910940E-013
 0.910940E-013
 0.910940E-013
 0.910941E-013
 0.910941E-013
 0.910941E-013
 0.910941E-013
 0.910940E-013
 0.910940E-013
 0.910940E-013
 0.910940E-013
 0.910940E-013
 0.910940E-013
 0.910940E-013
 0.910940E-013
 0.910940E-013
 0.910940E-013
 0.910940E-013
 0.910940E-013
 0.910940E-013
 0.910940E-013
 0.910940E-013
 0.910940E-013
 0.910940E-013
 0.910939E-013
 0.910939E-013
 0.910939E-013
 0.910939E-013
 0.910939E-013
 0.910939E-013
 0.910939E-013
 0.910939E-013
 0.910939E-013
 0.910939E-013
 0.910939E-013
 0.910939E-013
 0.910939E-013
 0.910939E-013
 0.910939E-013
 0.910939E-013
 0.910939E-013
 0.910938E-013
 0.910938E-013
 0.910938E-013
 0.910938E-013
 0.910938E-013
 0.910938E-013
 0.910938E-013
 0.910938E-013
 0.910938E-013
 0.910938E-013
 0.910938E-013
 0.910938E-013
 0.910938E-013
 0.910938E-013
 0.910938E-013
 0.910938E-013
 0.910938E-013
 0.910938E-013
 0.910938E-013
 0.910939E-013
 0.910936E-013
 0.910949E-013
 0.910887E-013
 0.911157E-013
 0.910144E-013
 0.913319E-013
 0.905259E-013
 0.921209E-013
 0.922101E-013
 0.904747E-013
 0.913538E-013
 0.910070E-013
 0.911178E-013
 0.910882E-013
 0.910950E-013
 0.910936E-013
 0.910939E-013
 0.910938E-013
 0.910938E-013
 0.910938E-013
 0.910938E-013
 0.910938E-013
 0.910938E-013
 0.910938E-013
 0.910938E-013
 0.910938E-013
 0.910938E-013
 0.910938E-013
 0.910938E-013
 0.910938E-013
 0.910938E-013
 0.910939E-013
 0.910939E-013
 0.910939E-013
 0.910939E-013
 0.910939E-013
 0.910939E-013
 0.910939E-013
 0.910939E-013
 0.910939E-013
 0.910939E-013
 0.910939E-013
 0.910939E-013
 0.910939E-013
 0.910939E-013
 0.910939E-013
 0.910939E-013
 0.910939E-013
 0.910940E-013
 0.910940E-013
 0.910940E-013
 0.910940E-013
 0.910940E-013
 0.910940E-013
 0.910940E-013
 0.910940E-013
 0.910940E-013