# vtk DataFile Version 3.0
Solution data
ASCII
DATASET STRUCTURED_GRID
DIMENSIONS 128 128 1
POINTS 16384  double
      0.000004      0.000004      0.000000
      0.000012      0.000004      0.000000
      0.000020      0.000004      0.000000
      0.000027      0.000004      0.000000
      0.000035      0.000004      0.000000
      0.000043      0.000004      0.000000
      0.000051      0.000004      0.000000
      0.000059      0.000004      0.000000
      0.000066      0.000004      0.000000
      0.000074      0.000004      0.000000
      0.000082      0.000004      0.000000
      0.000090      0.000004      0.000000
      0.000098      0.000004      0.000000
      0.000105      0.000004      0.000000
      0.000113      0.000004      0.000000
      0.000121      0.000004      0.000000
      0.000129      0.000004      0.000000
      0.000137      0.000004      0.000000
      0.000145      0.000004      0.000000
      0.000152      0.000004      0.000000
      0.000160      0.000004      0.000000
      0.000168      0.000004      0.000000
      0.000176      0.000004      0.000000
      0.000184      0.000004      0.000000
      0.000191      0.000004      0.000000
      0.000199      0.000004      0.000000
      0.000207      0.000004      0.000000
      0.000215      0.000004      0.000000
      0.000223      0.000004      0.000000
      0.000230      0.000004      0.000000
      0.000238      0.000004      0.000000
      0.000246      0.000004      0.000000
      0.000254      0.000004      0.000000
      0.000262      0.000004      0.000000
      0.000270      0.000004      0.000000
      0.000277      0.000004      0.000000
      0.000285      0.000004      0.000000
      0.000293      0.000004      0.000000
      0.000301      0.000004      0.000000
      0.000309      0.000004      0.000000
      0.000316      0.000004      0.000000
      0.000324      0.000004      0.000000
      0.000332      0.000004      0.000000
      0.000340      0.000004      0.000000
      0.000348      0.000004      0.000000
      0.000355      0.000004      0.000000
      0.000363      0.000004      0.000000
      0.000371      0.000004      0.000000
      0.000379      0.000004      0.000000
      0.000387      0.000004      0.000000
      0.000395      0.000004      0.000000
      0.000402      0.000004      0.000000
      0.000410      0.000004      0.000000
      0.000418      0.000004      0.000000
      0.000426      0.000004      0.000000
      0.000434      0.000004      0.000000
      0.000441      0.000004      0.000000
      0.000449      0.000004      0.000000
      0.000457      0.000004      0.000000
      0.000465      0.000004      0.000000
      0.000473      0.000004      0.000000
      0.000480      0.000004      0.000000
      0.000488      0.000004      0.000000
      0.000496      0.000004      0.000000
      0.000504      0.000004      0.000000
      0.000512      0.000004      0.000000
      0.000520      0.000004      0.000000
      0.000527      0.000004      0.000000
      0.000535      0.000004      0.000000
      0.000543      0.000004      0.000000
      0.000551      0.000004      0.000000
      0.000559      0.000004      0.000000
      0.000566      0.000004      0.000000
      0.000574      0.000004      0.000000
      0.000582      0.000004      0.000000
      0.000590      0.000004      0.000000
      0.000598      0.000004      0.000000
      0.000605      0.000004      0.000000
      0.000613      0.000004      0.000000
      0.000621      0.000004      0.000000
      0.000629      0.000004      0.000000
      0.000637      0.000004      0.000000
      0.000645      0.000004      0.000000
      0.000652      0.000004      0.000000
      0.000660      0.000004      0.000000
      0.000668      0.000004      0.000000
      0.000676      0.000004      0.000000
      0.000684      0.000004      0.000000
      0.000691      0.000004      0.000000
      0.000699      0.000004      0.000000
      0.000707      0.000004      0.000000
      0.000715      0.000004      0.000000
      0.000723      0.000004      0.000000
      0.000730      0.000004      0.000000
      0.000738      0.000004      0.000000
      0.000746      0.000004      0.000000
      0.000754      0.000004      0.000000
      0.000762      0.000004      0.000000
      0.000770      0.000004      0.000000
      0.000777      0.000004      0.000000
      0.000785      0.000004      0.000000
      0.000793      0.000004      0.000000
      0.000801      0.000004      0.000000
      0.000809      0.000004      0.000000
      0.000816      0.000004      0.000000
      0.000824      0.000004      0.000000
      0.000832      0.000004      0.000000
      0.000840      0.000004      0.000000
      0.000848      0.000004      0.000000
      0.000855      0.000004      0.000000
      0.000863      0.000004      0.000000
      0.000871      0.000004      0.000000
      0.000879      0.000004      0.000000
      0.000887      0.000004      0.000000
      0.000895      0.000004      0.000000
      0.000902      0.000004      0.000000
      0.000910      0.000004      0.000000
      0.000918      0.000004      0.000000
      0.000926      0.000004      0.000000
      0.000934      0.000004      0.000000
      0.000941      0.000004      0.000000
      0.000949      0.000004      0.000000
      0.000957      0.000004      0.000000
      0.000965      0.000004      0.000000
      0.000973      0.000004      0.000000
      0.000980      0.000004      0.000000
      0.000988      0.000004      0.000000
      0.000996      0.000004      0.000000
      0.000004      0.000012      0.000000
      0.000012      0.000012      0.000000
      0.000020      0.000012      0.000000
      0.000027      0.000012      0.000000
      0.000035      0.000012      0.000000
      0.000043      0.000012      0.000000
      0.000051      0.000012      0.000000
      0.000059      0.000012      0.000000
      0.000066      0.000012      0.000000
      0.000074      0.000012      0.000000
      0.000082      0.000012      0.000000
      0.000090      0.000012      0.000000
      0.000098      0.000012      0.000000
      0.000105      0.000012      0.000000
      0.000113      0.000012      0.000000
      0.000121      0.000012      0.000000
      0.000129      0.000012      0.000000
      0.000137      0.000012      0.000000
      0.000145      0.000012      0.000000
      0.000152      0.000012      0.000000
      0.000160      0.000012      0.000000
      0.000168      0.000012      0.000000
      0.000176      0.000012      0.000000
      0.000184      0.000012      0.000000
      0.000191      0.000012      0.000000
      0.000199      0.000012      0.000000
      0.000207      0.000012      0.000000
      0.000215      0.000012      0.000000
      0.000223      0.000012      0.000000
      0.000230      0.000012      0.000000
      0.000238      0.000012      0.000000
      0.000246      0.000012      0.000000
      0.000254      0.000012      0.000000
      0.000262      0.000012      0.000000
      0.000270      0.000012      0.000000
      0.000277      0.000012      0.000000
      0.000285      0.000012      0.000000
      0.000293      0.000012      0.000000
      0.000301      0.000012      0.000000
      0.000309      0.000012      0.000000
      0.000316      0.000012      0.000000
      0.000324      0.000012      0.000000
      0.000332      0.000012      0.000000
      0.000340      0.000012      0.000000
      0.000348      0.000012      0.000000
      0.000355      0.000012      0.000000
      0.000363      0.000012      0.000000
      0.000371      0.000012      0.000000
      0.000379      0.000012      0.000000
      0.000387      0.000012      0.000000
      0.000395      0.000012      0.000000
      0.000402      0.000012      0.000000
      0.000410      0.000012      0.000000
      0.000418      0.000012      0.000000
      0.000426      0.000012      0.000000
      0.000434      0.000012      0.000000
      0.000441      0.000012      0.000000
      0.000449      0.000012      0.000000
      0.000457      0.000012      0.000000
      0.000465      0.000012      0.000000
      0.000473      0.000012      0.000000
      0.000480      0.000012      0.000000
      0.000488      0.000012      0.000000
      0.000496      0.000012      0.000000
      0.000504      0.000012      0.000000
      0.000512      0.000012      0.000000
      0.000520      0.000012      0.000000
      0.000527      0.000012      0.000000
      0.000535      0.000012      0.000000
      0.000543      0.000012      0.000000
      0.000551      0.000012      0.000000
      0.000559      0.000012      0.000000
      0.000566      0.000012      0.000000
      0.000574      0.000012      0.000000
      0.000582      0.000012      0.000000
      0.000590      0.000012      0.000000
      0.000598      0.000012      0.000000
      0.000605      0.000012      0.000000
      0.000613      0.000012      0.000000
      0.000621      0.000012      0.000000
      0.000629      0.000012      0.000000
      0.000637      0.000012      0.000000
      0.000645      0.000012      0.000000
      0.000652      0.000012      0.000000
      0.000660      0.000012      0.000000
      0.000668      0.000012      0.000000
      0.000676      0.000012      0.000000
      0.000684      0.000012      0.000000
      0.000691      0.000012      0.000000
      0.000699      0.000012      0.000000
      0.000707      0.000012      0.000000
      0.000715      0.000012      0.000000
      0.000723      0.000012      0.000000
      0.000730      0.000012      0.000000
      0.000738      0.000012      0.000000
      0.000746      0.000012      0.000000
      0.000754      0.000012      0.000000
      0.000762      0.000012      0.000000
      0.000770      0.000012      0.000000
      0.000777      0.000012      0.000000
      0.000785      0.000012      0.000000
[...]
POINT_DATA 16384
SCALARS rhoe double
LOOKUP_TABLE default
 0.916395E-013
 0.912446E-013
 0.915427E-013
 0.915515E-013
 0.916628E-013
 0.917425E-013
 0.918303E-013
 0.919159E-013
 0.920017E-013
 0.920871E-013
 0.921723E-013
 0.922572E-013
 0.923418E-013
 0.924261E-013
 0.925101E-013
 0.925937E-013
 0.926770E-013
 0.927599E-013
 0.928423E-013
 0.929243E-013
 0.930058E-013
 0.930868E-013
 0.931673E-013
 0.932472E-013
 0.933264E-013
 0.934049E-013
 0.934828E-013
 0.935598E-013
 0.936360E-013
 0.937113E-013
 0.937857E-013
 0.938590E-013
 0.939313E-013
 0.940024E-013
 0.940723E-013
 0.941409E-013
 0.942081E-013
 0.942739E-013
 0.943382E-013
 0.944008E-013
 0.944618E-013
 0.945211E-013
 0.945784E-013
 0.946339E-013
 0.946874E-013
 0.947388E-013
 0.947880E-013
 0.948350E-013
 0.948797E-013
 0.949220E-013
 0.949618E-013
 0.949991E-013
 0.950338E-013
 0.950658E-013
 0.950952E-013
 0.951217E-013
 0.951455E-013
 0.951663E-013
 0.951843E-013
 0.951993E-013
 0.952114E-013
 0.952204E-013
 0.952265E-013
 0.952295E-013
 0.952295E-013
 0.952265E-013
 0.952204E-013
 0.952114E-013
 0.951993E-013
 0.951843E-013
 0.951663E-013
 0.951455E-013
 0.951217E-013
 0.950952E-013
 0.950659E-013
 0.950338E-013
 0.949991E-013
 0.949618E-013
 0.949220E-013
 0.948797E-013
 0.948350E-013
 0.947880E-013
 0.947388E-013
 0.946874E-013
 0.946339E-013
 0.945785E-013
 0.945211E-013
 0.944618E-013
 0.944009E-013
 0.943382E-013
 0.942739E-013
 0.942081E-013
 0.941409E-013
 0.940723E-013
 0.940024E-013
 0.939313E-013
 0.938590E-013
 0.937857E-013
 0.937113E-013
 0.936360E-013
 0.935598E-013
 0.934828E-013
 0.934050E-013
 0.933264E-013
 0.932472E-013
 0.931673E-013
 0.930869E-013
 0.930059E-013
 0.929244E-013
 0.928424E-013
 0.927599E-013
 0.926770E-013
 0.925938E-013
 0.925101E-013
 0.924262E-013
 0.923418E-013
 0.922572E-013
 0.921723E-013
 0.920871E-013
 0.920017E-013
 0.919159E-013
 0.918303E-013
 0.917425E-013
 0.916628E-013
 0.915515E-013
 0.915427E-013
 0.912446E-013
 0.916395E-013
 0.912446E-013
 0.907775E-013
 0.909435E-013
 0.907978E-013
 0.907763E-013
 0.907138E-013
 0.906630E-013
 0.906096E-013
 0.905569E-013
 0.905042E-013
 0.904517E-013
 0.903995E-013
 0.903474E-013
 0.902955E-013
 0.902437E-013
 0.901922E-013
 0.901410E-013
 0.900899E-013
 0.900392E-013
 0.899887E-013
 0.899385E-013
 0.898886E-013
 0.898390E-013
 0.897898E-013
 0.897410E-013
 0.896926E-013
 0.896447E-013
 0.895972E-013
 0.895502E-013
 0.895038E-013
 0.894580E-013
 0.894127E-013
 0.893682E-013
 0.893243E-013
 0.892812E-013
 0.892389E-013
 0.891974E-013
 0.891568E-013
 0.891172E-013
 0.890785E-013
 0.890409E-013
 0.890043E-013
 0.889689E-013
 0.889346E-013
 0.889016E-013
 0.888699E-013
 0.888395E-013
 0.888105E-013
 0.887829E-013
 0.887568E-013
 0.887322E-013
 0.887091E-013
 0.886877E-013
 0.886679E-013
 0.886498E-013
 0.886334E-013
 0.886187E-013
 0.886058E-013
 0.885947E-013
 0.885854E-013
 0.885780E-013
 0.885724E-013
 0.885686E-013
 0.885668E-013
 0.885668E-013
 0.885686E-013
 0.885724E-013
 0.885780E-013
 0.885854E-013
 0.885947E-013
 0.886058E-013
 0.886187E-013
 0.886334E-013
 0.886498E-013
 0.886679E-013
 0.886877E-013
 0.887091E-013
 0.887322E-013
 0.887568E-013
 0.887829E-013
 0.888105E-013
 0.888395E-013
 0.888699E-013
 0.889017E-013
 0.889347E-013
 0.889689E-013
 0.890043E-013
 0.890409E-013
 0.890786E-013
 0.891172E-013
 0.891569E-013
 0.891975E-013
 0.892389E-013
 0.892813E-013
 0.893244E-013
 0.893682E-013
 0.894128E-013
 0.894580E-013
 0.895038E-013
 0.895503E-013
 0.895972E-013
 0.896447E-013
 0.896926E-013
 0.897410E-013
 0.897899E-013
 0.898391E-013
 0.898886E-013
 0.899385E-013
 0.899887E-013
 0.900392E-013
 0.900900E-013
 0.901410E-013
 0.901923E-013
 0.902438E-013
 0.902955E-013
 0.903474E-013
 0.903995E-013
 0.904518E-013
 0.905042E-013
 0.905569E-013
 0.906096E-013
 0.906630E-013
 0.907138E-013
 0.907763E-013
 0.907978E-013
 0.909436E-013
 0.907776E-013
 0.912446E-013
 0.915427E-013
 0.909435E-013
 0.912875E-013
 0.911804E-013
 0.912510E-013
 0.912627E-013
 0.912910E-013
 0.913151E-013
 0.913400E-013
 0.913647E-013
 0.913893E-013
 0.914139E-013
 0.914383E-013
 0.914627E-013
 0.914869E-013
 0.915111E-013
 0.915351E-013
 0.915590E-013
 0.915828E-013
 0.916065E-013
 0.916301E-013
 0.916534E-013
 0.916767E-013
 0.916997E-013
 0.917226E-013
 0.917453E-013
 0.917677E-013
 0.917900E-013
 0.918120E-013
 0.918337E-013
 0.918552E-013
 0.918764E-013
 0.918972E-013
 0.919178E-013
 0.919380E-013
 0.919578E-013
 0.919772E-013
 0.919962E-013
 0.920148E-013
 0.920329E-013
 0.920505E-013
 0.920677E-013
 0.920843E-013
 0.921003E-013
 0.921158E-013
 0.921306E-013
 0.921448E-013
 0.921584E-013
 0.921714E-013
 0.921836E-013
 0.921951E-013
 0.922059E-013
 0.922159E-013
 0.922252E-013
 0.922337E-013
 0.922414E-013
 0.922483E-013
 0.922543E-013
 0.922595E-013
 0.922638E-013
 0.922673E-013
 0.922700E-013
 0.922717E-013
 0.922726E-013
 0.922726E-013
 0.922717E-013
 0.922699E-013
 0.922673E-013
 0.922638E-013
 0.922595E-013
 0.922543E-013
 0.922482E-013
 0.922414E-013
 0.922337E-013
 0.922252E-013
 0.922159E-013
 0.922059E-013
 0.921951E-013
 0.921836E-013
 0.921713E-013
 0.921584E-013
 0.921448E-013
 0.921306E-013
 0.921157E-013
 0.921003E-013
 0.920842E-013
 0.920676E-013
 0.920505E-013
 0.920329E-013
 0.920148E-013
 0.919962E-013
 0.919772E-013
 0.919578E-013
 0.919379E-013
 0.919177E-013
 0.918972E-013
 0.918763E-013
 0.918552E-013
 0.918337E-013
 0.918119E-013
 0.917899E-013
 0.917677E-013
 0.917452E-013
 0.917226E-013
 0.916997E-013
 0.916766E-013
 0.916534E-013
 0.916300E-013
 0.916065E-013
 0.915828E-013
 0.915590E-013
 0.915351E-013
 0.915110E-013
 0.914869E-013
 0.914626E-013
 0.914383E-013
 0.914138E-013
 0.913893E-013
 0.913647E-013
 0.913400E-013
 0.913150E-013
 0.912909E-013
 0.912626E-013
 0.912510E-013
 0.911804E-013
 0.912875E-013
 0.909436E-013
 0.915427E-013
 0.915515E-013
 0.907978E-013
 0.911804E-013
 0.910055E-013
 0.910537E-013
 0.910273E-013
 0.910223E-013
 0.910120E-013
 0.910029E-013
 0.909936E-013
 0.909843E-013
 0.909751E-013
 0.909659E-013
 0.909568E-013
 0.909477E-013
 0.909386E-013
 0.909296E-013
 0.909206E-013
 0.909117E-013
 0.909028E-013
 0.908939E-013
 0.908851E-013
 0.908764E-013
 0.908678E-013
 0.908592E-013
 0.908507E-013
 0.908422E-013
 0.908339E-013
 0.908256E-013
 0.908174E-013
 0.908094E-013
 0.908014E-013
 0.907936E-013
 0.907859E-013
 0.907783E-013
 0.907709E-013
 0.907636E-013
 0.907564E-013
 0.907494E-013
 0.907426E-013
 0.907360E-013
 0.907296E-013
 0.907234E-013
 0.907173E-013
 0.907115E-013
 0.907060E-013
 0.907006E-013
 0.906955E-013
 0.906907E-013
 0.906861E-013
 0.906817E-013
 0.906777E-013
 0.906739E-013
 0.906704E-013
 0.906672E-013
 0.906644E-013
 0.906618E-013
 0.906595E-013
 0.906576E-013
 0.906559E-013
 0.906546E-013
 0.906536E-013
 0.906530E-013
 0.906527E-013
 0.906527E-013
 0.906530E-013
 0.906536E-013
 0.906546E-013
 0.906559E-013
 0.906576E-013
 0.906595E-013
 0.906618E-013
 0.906644E-013
 0.906673E-013
 0.906704E-013
 0.906739E-013
 0.906777E-013
 0.906817E-013
 0.906861E-013
 0.906907E-013
 0.906955E-013
 0.907006E-013
 0.907060E-013
 0.907116E-013
 0.907174E-013
 0.907234E-013
 0.907296E-013
 0.907360E-013
 0.907427E-013
 0.907495E-013
 0.907564E-013
 0.907636E-013
 0.907709E-013
 0.907783E-013
 0.907859E-013
 0.907936E-013
 0.908014E-013
 0.908094E-013
 0.908175E-013
 0.908256E-013
 0.908339E-013
 0.908422E-013
 0.908507E-013
 0.908592E-013
 0.908678E-013
 0.908764E-013
 0.908852E-013
 0.908939E-013
 0.909028E-013
 0.909117E-013
 0.909206E-013
 0.909296E-013
 0.909386E-013
 0.909477E-013
 0.909568E-013
 0.909659E-013
 0.909751E-013
 0.909843E-013
 0.909936E-013
 0.910029E-013
 0.910120E-013
 0.910223E-013
 0.910273E-013
 0.910537E-013
 0.910055E-013
 0.911804E-013
 0.907978E-013
 0.915515E-013
 0.916628E-013
 0.907763E-013
 0.912510E-013
 0.910537E-013
 0.911266E-013
 0.911089E-013
 0.911170E-013
 0.911188E-013
 0.911219E-013
 0.911247E-013
 0.911276E-013
 0.911305E-013
 0.911334E-013
 0.911362E-013
 0.911390E-013
 0.911419E-013
 0.911447E-013
 0.911475E-013
 0.911503E-013
 0.911530E-013
 0.911558E-013
 0.911585E-013
 0.911612E-013
 0.911639E-013
 0.911666E-013
 0.911693E-013
 0.911719E-013
 0.911745E-013
 0.911771E-013
 0.911796E-013
 0.911821E-013
 0.911846E-013
 0.911870E-013
 0.911894E-013
 0.911918E-013
 0.911941E-013
 0.911964E-013
 0.911986E-013
 0.912008E-013
 0.912029E-013
 0.912050E-013
 0.912070E-013
 0.912089E-013
 0.912108E-013
 0.912126E-013
 0.912143E-013
 0.912160E-013
 0.912176E-013
 0.912191E-013
 0.912205E-013
 0.912219E-013
 0.912232E-013
 0.912243E-013
 0.912254E-013
 0.912264E-013
 0.912273E-013
 0.912281E-013
 0.912288E-013
 0.912294E-013
 0.912299E-013
 0.912304E-013
 0.912307E-013
 0.912309E-013
 0.912310E-013
 0.912310E-013
 0.912309E-013
 0.912307E-013
 0.912304E-013
 0.912299E-013
 0.912294E-013
 0.912288E-013
 0.912281E-013
 0.912273E-013
 0.912264E-013
 0.912254E-013
 0.912243E-013
 0.912232E-013
 0.912219E-013
 0.912205E-013
 0.912191E-013
 0.912176E-013
 0.912160E-013
 0.912143E-013
 0.912126E-013
 0.912108E-013
 0.912089E-013
 0.912070E-013
 0.912050E-013
 0.912029E-013
 0.912008E-013
 0.911986E-013
 0.911964E-013
 0.911941E-013
 0.911918E-013
 0.911894E-013
 0.911870E-013
 0.911846E-013
 0.911821E-013
 0.911796E-013
 0.911771E-013
 0.911745E-013
 0.911719E-013
 0.911693E-013
 0.911666E-013
 0.911639E-013
 0.911612E-013
 0.911585E-013
 0.911558E-013
 0.911530E-013
 0.911503E-013
 0.911475E-013
 0.911447E-013
 0.911419E-013
 0.911390E-013
 0.911362E-013
 0.911333E-013
 0.911305E-013
 0.911276E-013
 0.911247E-013
 0.911219E-013
 0.911188E-013
 0.911170E-013
 0.911089E-013
 0.911266E-013
 0.910537E-013
 0.912510E-013
 0.907763E-013
 0.916628E-013
 0.917425E-013
 0.907138E-013
 0.912627E-013
 0.910273E-013
 0.911089E-013
 0.910837E-013
 0.910892E-013
 0.910870E-013
 0.910865E-013
 0.910857E-013
 0.910849E-013
 0.910842E-013
 0.910834E-013
 0.910827E-013
 0.910819E-013
 0.910812E-013
 0.910804E-013
 0.910797E-013
 0.910789E-013
 0.910782E-013
 0.910775E-013
 0.910768E-013
 0.910760E-013
 0.910753E-013
 0.910746E-013
 0.910739E-013
 0.910732E-013
 0.910725E-013
 0.910718E-013
 0.910712E-013
 0.910705E-013
 0.910699E-013
 0.910692E-013
 0.910686E-013
 0.910680E-013
 0.910673E-013
 0.910667E-013
 0.910662E-013
 0.910656E-013
 0.910650E-013
 0.910645E-013
 0.910640E-013
 0.910634E-013
 0.910630E-013
 0.910625E-013
 0.910620E-013
 0.910616E-013
 0.910612E-013
 0.910608E-013
 0.910604E-013
 0.910600E-013
 0.910597E-013
 0.910594E-013
 0.910591E-013
 0.910589E-013
 0.910586E-013
 0.910584E-013
 0.910582E-013
 0.910581E-013
 0.910579E-013
 0.910578E-013
 0.910577E-013
 0.910577E-013
 0.910577E-013
 0.910577E-013
 0.910577E-013
 0.910577E-013
 0.910578E-013
 0.910579E-013
 0.910581E-013
 0.910582E-013
 0.910584E-013
 0.910586E-013
 0.910589E-013
 0.910591E-013
 0.910594E-013
 0.910597E-013
 0.910600E-013
 0.910604E-013
 0.910608E-013
 0.910612E-013
 0.910616E-013
 0.910620E-013
 0.910625E-013
 0.910630E-013
 0.910634E-013
 0.910640E-013
 0.910645E-013
 0.910650E-013
 0.910656E-013
 0.910662E-013
 0.910667E-013
 0.910673E-013
 0.910680E-013
 0.910686E-013
 0.910692E-013
 0.910699E-013
 0.910705E-013
 0.910712E-013
 0.910718E-013
 0.910725E-013
 0.910732E-013
 0.910739E-013
 0.910746E-013
 0.910753E-013
 0.910760E-013
 0.910768E-013
 0.910775E-013
 0.910782E-013
 0.910789E-013
 0.910797E-013
 0.910804E-013
 0.910812E-013
 0.910819E-013
 0.910827E-013
 0.910834E-013
 0.910842E-013
 0.910849E-013
 0.910857E-013
 0.910865E-013
 0.910870E-013
 0.910892E-013
 0.910837E-013
 0.911089E-013
 0.910273E-013
 0.912626E-013
 0.907138E-013
 0.917425E-013
 0.918303E-013
 0.906630E-013
 0.912910E-013
 0.910223E-013
 0.911170E-013
 0.910892E-013
 0.910965E-013
 0.910951E-013
 0.910956E-013
 0.910957E-013
 0.910959E-013
 0.910961E-013
 0.910962E-013
 0.910964E-013
 0.910966E-013
 0.910967E-013
 0.910969E-013
 0.910971E-013
 0.910973E-013
 0.910974E-013
 0.910976E-013
 0.910978E-013
 0.910979E-013
 0.910981E-013
 0.910983E-013
 0.910984E-013
 0.910986E-013
 0.910988E-013
 0.910989E-013
 0.910991E-013
 0.910992E-013
 0.910994E-013
 0.910995E-013
 0.910997E-013
 0.910998E-013
 0.911000E-013
 0.911001E-013
 0.911002E-013
 0.911004E-013
 0.911005E-013
 0.911006E-013
 0.911008E-013
 0.911009E-013
 0.911010E-013
 0.911011E-013
 0.911012E-013
 0.911013E-013
 0.911014E-013
 0.911015E-013
 0.911016E-013
 0.911017E-013
 0.911018E-013
 0.911019E-013
 0.911020E-013
 0.911020E-013
 0.911021E-013
 0.911021E-013
 0.911022E-013
 0.911022E-013
 0.911022E-013
 0.911023E-013
 0.911023E-013
 0.911023E-013
 0.911023E-013
 0.911023E-013
 0.911023E-013
 0.911023E-013
 0.911023E-013
 0.911022E-013
 0.911022E-013
 0.911022E-013
 0.911021E-013
 0.911021E-013
 0.911020E-013
 0.911020E-013
 0.911019E-013
 0.911018E-013
 0.911017E-013
 0.911016E-013
 0.911015E-013
 0.911014E-013
 0.911013E-013
 0.911012E-013
 0.911011E-013
 0.911010E-013
 0.911009E-013
 0.911008E-013
 0.911006E-013
 0.911005E-013
 0.911004E-013
 0.911002E-013
 0.911001E-013
 0.911000E-013
 0.910998E-013
 0.910997E-013
 0.910995E-013
 0.910994E-013
 0.910992E-013
 0.910991E-013
 0.910989E-013
 0.910988E-013
 0.910986E-013
 0.910984E-013
 0.910983E-013
 0.910981E-013
 0.910979E-013
 0.910978E-013
 0.910976E-013
 0.910974E-013
 0.910973E-013
 0.910971E-013
 0.910969E-013
 0.910967E-013
 0.910966E-013
 0.910964E-013
 0.910962E-013
 0.910961E-013
 0.910959E-013
 0.910957E-013
 0.910956E-013
 0.910951E-013
 0.910965E-013
 0.910892E-013
 0.911170E-013
 0.910223E-013
 0.912909E-013
 0.906630E-013
 0.918303E-013
 0.919159E-013
 0.906096E-013
 0.913151E-013
 0.910120E-013
 0.911188E-013
 0.910870E-013
 0.910951E-013
 0.910932E-013
 0.910935E-013
 0.910934E-013
 0.910934E-013
 0.910934E-013
 0.910933E-013
 0.910933E-013
 0.910933E-013
 0.910932E-013
 0.910932E-013
 0.910932E-013
 0.910931E-013
 0.910931E-013
 0.910931E-013
 0.910930E-013
 0.910930E-013
 0.910930E-013
 0.910929E-013
 0.910929E-013
 0.910929E-013
 0.910929E-013
 0.910928E-013
 0.910928E-013
 0.910928E-013
 0.910927E-013
 0.910927E-013
 0.910927E-013
 0.910927E-013
 0.910926E-013
 0.910926E-013
 0.910926E-013
 0.910926E-013
 0.910925E-013
 0.910925E-013
 0.910925E-013
 0.910925E-013
 0.910925E-013
 0.910924E-013
 0.910924E-013
 0.910924E-013
 0.910924E-013
 0.910924E-013
 0.910924E-013
 0.910924E-013
 0.910924E-013
 0.910923E-013
 0.910923E-013
 0.910923E-013
 0.910923E-013
 0.910923E-013
 0.910923E-013
 0.910923E-013
 0.910923E-013
 0.910923E-013
 0.910923E-013
 0.910923E-013
 0.910923E-013
 0.910923E-013
 0.910923E-013
 0.910923E-013
 0.910923E-013
 0.910923E-013
 0.910923E-013
 0.910923E-013
 0.910923E-013
 0.910923E-013
 0.910923E-013
 0.910923E-013
 0.910923E-013
 0.910924E-013
 0.910924E-013
 0.910924E-013
 0.910924E-013
 0.910924E-013
 0.910924E-013
 0.910924E-013
 0.910924E-013
 0.910925E-013
 0.910925E-013
 0.910925E-013
 0.910925E-013
 0.910925E-013
 0.910926E-013
 0.910926E-013
 0.910926E-013
 0.910926E-013
 0.910927E-013
 0.910927E-013
 0.910927E-013
 0.910927E-013
 0.910928E-013
 0.910928E-013
 0.910928E-013
 0.910929E-013
 0.910929E-013
 0.910929E-013
 0.910929E-013
 0.910930E-013
 0.910930E-013
 0.910930E-013
 0.910931E-013
 0.910931E-013
 0.910931E-013
 0.910932E-013
 0.910932E-013
 0.910932E-013
 0.910933E-013
 0.910933E-013
 0.910934E-013
 0.910934E-013
 0.910934E-013
 0.910934E-013
 0.910935E-013
 0.910932E-013
 0.910951E-013
 0.910870E-013
 0.911188E-013
 0.910120E-013
 0.913150E-013
 0.906096E-013
 0.919159E-013
 0.920017E-013
 0.905569E-013
 0.913400E-013
 0.910029E-013
 0.911219E-013
 0.910865E-013
 0.910956E-013
 0.910935E-013
 0.910940E-013
 0.910939E-013
 0.910939E-013
 0.910939E-013
 0.910939E-013
 0.910939E-013
 0.910939E-013
 0.910939E-013
 0.910940E-013
 0.910940E-013
 0.910940E-013
 0.910940E-013
 0.910940E-013
 0.910940E-013
 0.910940E-013
 0.910940E-013
 0.910940E-013
 0.910940E-013
 0.910940E-013
 0.910940E-013
 0.910940E-013
 0.910941E-013
 0.910941E-013
 0.910941E-013
 0.910941E-013
 0.910941E-013
 0.910941E-013
 0.910941E-013
 0.910941E-013
 0.910941E-013
 0.910941E-013
 0.910941E-013
 0.910942E-013
 0.910942E-013
 0.910942E-013
 0.910942E-013
 0.910942E-013
 0.910942E-013
 0.910942E-013
 0.910942E-013
 0.910942E-013
 0.910942E-013
 0.910943E-013
 0.910943E-013
 0.910943E-013
 0.910943E-013
 0.910943E-013
 0.910943E-013
 0.910943E-013
 0.910943E-013
 0.910943E-013
 0.910943E-013
 0.910943E-013
 0.910943E-013
 0.910943E-013
 0.910943E-013
 0.910943E-013
 0.910943E-013
 0.910943E-013
 0.910943E-013
 0.910943E-013
 0.910943E-013
 0.910943E-013
 0.910943E-013
 0.910943E-013
 0.910943E-013
 0.910943E-013
 0.910943E-013
 0.910943E-013
 0.910943E-013
 0.910942E-013
 0.910942E-013
 0.910942E-013
 0.910942E-013
 0.910942E-013
 0.910942E-013
 0.910942E-013
 0.910942E-013
 0.910942E-013
 0.910942E-013
 0.910941E-013
 0.910941E-013
 0.910941E-013
 0.910941E-013
 0.910941E-013
 0.910941E-013
 0.910941E-013
 0.910941E-013
 0.910941E-013
 0.910941E-013
 0.910941E-013
 0.910940E-013
 0.910940E-013
 0.910940E-013
 0.910940E-013
 0.910940E-013
 0.910940E-013
 0.910940E-013
 0.910940E-013
 0.910940E-013
 0.910940E-013
 0.910940E-013
 0.910940E-013
 0.910940E-013
 0.910939E-013
 0.910939E-013
 0.910939E-013
 0.910939E-013
 0.910939E-013
 0.910939E-013
 0.910939E-013
 0.910940E-013
 0.910935E-013
 0.910956E-013
 0.910865E-013
 0.911219E-013
 0.910029E-013
 0.913400E-013
 0.905569E-013
 0.920017E-013
 0.920871E-013
 0.905042E-013
 0.913647E-013
 0.909936E-013
 0.911247E-013
 0.910857E-013
 0.910957E-013
 0.910934E-013
 0.910939E-013
 0.910938E-013
 0.910938E-013
 0.910938E-013
 0.910938E-013
 0.910938E-013
 0.910938E-013
 0.910938E-013
 0.910938E-013
 0.910938E-013
 0.910938E-013
 0.910938E-013
 0.910938E-013
 0.910938E-013
 0.910938E-013
 0.910938E-013
 0.910938E-013
 0.910938E-013
 0.910938E-013
 0.910938E-013
 0.910938E-013
 0.910938E-013
 0.910938E-013
 0.910938E-013
 0.910938E-013
 0.910938E-013
 0.910939E-013
 0.910939E-013
 0.910939E-013
 0.910939E-013
 0.910939E-013
 0.910939E-013
 0.910939E-013
 0.910939E-013
 0.910939E-013
 0.910939E-013
 0.910939E-013
 0.910939E-013
 0.910939E-013
 0.910939E-013
 0.910939E-013
 0.910939E-013
 0.910939E-013
 0.910940E-013
 0.910940E-013
 0.910940E-013
 0.910940E-013
 0.910940E-013
 0.910940E-013
 0.910940E-013
 0.910940E-013
 0.910940E-013
 0.910940E-013
 0.910940E-013
 0.910940E-013
 0.910940E-013
 0.910940E-013
 0.910940E-013
 0.910940E-013
 0.910940E-013
 0.910940E-013
 0.910940E-013
 0.910940E-013
 0.910940E-013
 0.910940E-013
 0.910940E-013
 0.910940E-013
 0.910940E-013
 0.910940E-013
 0.910939E-013
 0.910939E-013
 0.910939E-013
 0.910939E-013
 0.910939E-013
 0.910939E-013
 0.910939E-013
 0.910939E-013
 0.910939E-013
 0.910939E-013
 0.910939E-013
 0.910939E-013
 0.910939E-013
 0.910939E-013
 0.910939E-013
 0.910939E-013
 0.910939E-013
 0.910938E-013
 0.910938E-013
 0.910938E-013
 0.910938E-013
 0.910938E-013
 0.910938E-013
 0.910938E-013
 0.910938E-013
 0.910938E-013
 0.910938E-013
 0.910938E-013
 0.910938E-013
 0.910938E-013
 0.910938E-013
 0.910938E-013
 0.910938E-013
 0.910938E-013
 0.910938E-013
 0.910938E-013
 0.910938E-013
 0.910938E-013
 0.910938E-013
 0.910938E-013
 0.910938E-013
 0.910938E-013
 0.910939E-013
 0.910934E-013
 0.910957E-013
 0.910857E-013
 0.911247E-013
 0.909936E-013
 0.913647E-013
 0.905042E-013
 0.920871E-013
 0.921723E-013
 0.904517E-013
 0.913893E-013
 0.909843E-013
 0.911276E-013
 0.910849E-013
 0.910959E-013
 0.910934E-013
 0.910939E-013
 0.910938E-013
 0.910938E-013
 0.910938E-013
 0.910938E-013
 0.910938E-013
 0.910938E-013
 0.910938E-013
 0.910938E-013
 0.910938E-013
 0.910938E-013
 0.910938E-013
 0.910938E-013
 0.910939E-013
 0.910939E-013
 0.910939E-013
 0.910939E-013
 0.910939E-013
 0.910939E-013
 0.910939E-013
 0.910939E-013
 0.910939E-013
 0.910939E-013
 0.910939E-013
 0.910939E-013
 0.910939E-013
 0.910939E-013
 0.910939E-013
 0.910939E-013
 0.910939E-013
 0.910939E-013
 0.910939E-013
 0.910939E-013
 0.910940E-013
 0.910940E-013
 0.910940E-013
 0.910940E-013
 0.910940E-013
 0.910940E-013
 0.910940E-013
 0.910940E-013