# vtk DataFile Version 3.0
Solution data
ASCII
DATASET STRUCTURED_GRID
DIMENSIONS 128 128 1
POINTS 16384  double
      0.000004      0.000004      0.000000
      0.000012      0.000004      0.000000
      0.000020      0.000004      0.000000
      0.000027      0.000004      0.000000
      0.000035      0.000004      0.000000
      0.000043      0.000004      0.000000
      0.000051      0.000004      0.000000
      0.000059      0.000004      0.000000
      0.000066      0.000004      0.000000
      0.000074      0.000004      0.000000
      0.000082      0.000004      0.000000
      0.000090      0.000004      0.000000
      0.000098      0.000004      0.000000
      0.000105      0.000004      0.000000
      0.000113      0.000004      0.000000
      0.000121      0.000004      0.000000
      0.000129      0.000004      0.000000
      0.000137      0.000004      0.000000
      0.000145      0.000004      0.000000
      0.000152      0.000004      0.000000
      0.000160      0.000004      0.000000
      0.000168      0.000004      0.000000
      0.000176      0.000004      0.000000
      0.000184      0.000004      0.000000
      0.000191      0.000004      0.000000
      0.000199      0.000004      0.000000
      0.000207      0.000004      0.000000
      0.000215      0.000004      0.000000
      0.000223      0.000004      0.000000
      0.000230      0.000004      0.000000
      0.000238      0.000004      0.000000
      0.000246      0.000004      0.000000
      0.000254      0.000004      0.000000
      0.000262      0.000004      0.000000
      0.000270      0.000004      0.000000
      0.000277      0.000004      0.000000
      0.000285      0.000004      0.000000
      0.000293      0.000004      0.000000
      0.000301      0.000004      0.000000
      0.000309      0.000004      0.000000
      0.000316      0.000004      0.000000
      0.000324      0.000004      0.000000
      0.000332      0.000004      0.000000
      0.000340      0.000004      0.000000
      0.000348      0.000004      0.000000
      0.000355      0.000004      0.000000
      0.000363      0.000004      0.000000
      0.000371      0.000004      0.000000
      0.000379      0.000004      0.000000
      0.000387      0.000004      0.000000
      0.000395      0.000004      0.000000
      0.000402      0.000004      0.000000
      0.000410      0.000004      0.000000
      0.000418      0.000004      0.000000
      0.000426      0.000004      0.000000
      0.000434      0.000004      0.000000
      0.000441      0.000004      0.000000
      0.000449      0.000004      0.000000
      0.000457      0.000004      0.000000
      0.000465      0.000004      0.000000
      0.000473      0.000004      0.000000
      0.000480      0.000004      0.000000
      0.000488      0.000004      0.000000
      0.000496      0.000004      0.000000
      0.000504      0.000004      0.000000
      0.000512      0.000004      0.000000
      0.000520      0.000004      0.000000
      0.000527      0.000004      0.000000
      0.000535      0.000004      0.000000
      0.000543      0.000004      0.000000
      0.000551      0.000004      0.000000
      0.000559      0.000004      0.000000
      0.000566      0.000004      0.000000
      0.000574      0.000004      0.000000
      0.000582      0.000004      0.000000
      0.000590      0.000004      0.000000
      0.000598      0.000004      0.000000
      0.000605      0.000004      0.000000
      0.000613      0.000004      0.000000
      0.000621      0.000004      0.000000
      0.000629      0.000004      0.000000
      0.000637      0.000004      0.000000
      0.000645      0.000004      0.000000
      0.000652      0.000004      0.000000
      0.000660      0.000004      0.000000
      0.000668      0.000004      0.000000
      0.000676      0.000004      0.000000
      0.000684      0.000004      0.000000
      0.000691      0.000004      0.000000
      0.000699      0.000004      0.000000
      0.000707      0.000004      0.000000
      0.000715      0.000004      0.000000
      0.000723      0.000004      0.000000
      0.000730      0.000004      0.000000
      0.000738      0.000004      0.000000
      0.000746      0.000004      0.000000
      0.000754      0.000004      0.000000
      0.000762      0.000004      0.000000
      0.000770      0.000004      0.000000
      0.000777      0.000004      0.000000
      0.000785      0.000004      0.000000
      0.000793      0.000004      0.000000
      0.000801      0.000004      0.000000
      0.000809      0.000004      0.000000
      0.000816      0.000004      0.000000
      0.000824      0.000004      0.000000
      0.000832      0.000004      0.000000
      0.000840      0.000004      0.000000
      0.000848      0.000004      0.000000
      0.000855      0.000004      0.000000
      0.000863      0.000004      0.000000
      0.000871      0.000004      0.000000
      0.000879      0.000004      0.000000
      0.000887      0.000004      0.000000
      0.000895      0.000004      0.000000
      0.000902      0.000004      0.000000
      0.000910      0.000004      0.000000
      0.000918      0.000004      0.000000
      0.000926      0.000004      0.000000
      0.000934      0.000004      0.000000
      0.000941      0.000004      0.000000
      0.000949      0.000004      0.000000
      0.000957      0.000004      0.000000
      0.000965      0.000004      0.000000
      0.000973      0.000004      0.000000
      0.000980      0.000004      0.000000
      0.000988      0.000004      0.000000
      0.000996      0.000004      0.000000
      0.000004      0.000012      0.000000
      0.000012      0.000012      0.000000
      0.000020      0.000012      0.000000
      0.000027      0.000012      0.000000
      0.000035      0.000012      0.000000
      0.000043      0.000012      0.000000
      0.000051      0.000012      0.000000
      0.000059      0.000012      0.000000
      0.000066      0.000012      0.000000
      0.000074      0.000012      0.000000
      0.000082      0.000012      0.000000
      0.000090      0.000012      0.000000
      0.000098      0.000012      0.000000
      0.000105      0.000012      0.000000
      0.000113      0.000012      0.000000
      0.000121      0.000012      0.000000
      0.000129      0.000012      0.000000
      0.000137      0.000012      0.000000
      0.000145      0.000012      0.000000
      0.000152      0.000012      0.000000
      0.000160      0.000012      0.000000
      0.000168      0.000012      0.000000
      0.000176      0.000012      0.000000
      0.000184      0.000012      0.000000
      0.000191      0.000012      0.000000
      0.000199      0.000012      0.000000
      0.000207      0.000012      0.000000
      0.000215      0.000012      0.000000
      0.000223      0.000012      0.000000
      0.000230      0.000012      0.000000
      0.000238      0.000012      0.000000
      0.000246      0.000012      0.000000
      0.000254      0.000012      0.000000
      0.000262      0.000012      0.000000
      0.000270      0.000012      0.000000
      0.000277      0.000012      0.000000
      0.000285      0.000012      0.000000
      0.000293      0.000012      0.000000
      0.000301      0.000012      0.000000
      0.000309      0.000012      0.000000
      0.000316      0.000012      0.000000
      0.000324      0.000012      0.000000
      0.000332      0.000012      0.000000
      0.000340      0.000012      0.000000
      0.000348      0.000012      0.000000
      0.000355      0.000012      0.000000
      0.000363      0.000012      0.000000
      0.000371      0.000012      0.000000
      0.000379      0.000012      0.000000
      0.000387      0.000012      0.000000
      0.000395      0.000012      0.000000
      0.000402      0.000012      0.000000
      0.000410      0.000012      0.000000
      0.000418      0.000012      0.000000
      0.000426      0.000012      0.000000
      0.000434      0.000012      0.000000
      0.000441      0.000012      0.000000
      0.000449      0.000012      0.000000
      0.000457      0.000012      0.000000
      0.000465      0.000012      0.000000
      0.000473      0.000012      0.000000
      0.000480      0.000012      0.000000
      0.000488      0.000012      0.000000
      0.000496      0.000012      0.000000
      0.000504      0.000012      0.000000
      0.000512      0.000012      0.000000
      0.000520      0.000012      0.000000
      0.000527      0.000012      0.000000
      0.000535      0.000012      0.000000
      0.000543      0.000012      0.000000
      0.000551      0.000012      0.000000
      0.000559      0.000012      0.000000
      0.000566      0.000012      0.000000
      0.000574      0.000012      0.000000
      0.000582      0.000012      0.000000
      0.000590      0.000012      0.000000
      0.000598      0.000012      0.000000
      0.000605      0.000012      0.000000
      0.000613      0.000012      0.000000
      0.000621      0.000012      0.000000
      0.000629      0.000012      0.000000
      0.000637      0.000012      0.000000
      0.000645      0.000012      0.000000
      0.000652      0.000012      0.000000
      0.000660      0.000012      0.000000
      0.000668      0.000012      0.000000
      0.000676      0.000012      0.000000
      0.000684      0.000012      0.000000
      0.000691      0.000012      0.000000
      0.000699      0.000012      0.000000
      0.000707      0.000012      0.000000
      0.000715      0.000012      0.000000
      0.000723      0.000012      0.000000
      0.000730      0.000012      0.000000
      0.000738      0.000012      0.000000
      0.000746      0.000012      0.000000
      0.000754      0.000012      0.000000
      0.000762      0.000012      0.000000
      0.000770      0.000012      0.000000
      0.000777      0.000012      0.000000
      0.000785      0.000012      0.000000
[...]
POINT_DATA 16384
SCALARS rhoe double
LOOKUP_TABLE default
 0.911936E-013
 0.911853E-013
 0.912327E-013
 0.912771E-013
 0.913216E-013
 0.913660E-013
 0.914105E-013
 0.914549E-013
 0.914992E-013
 0.915435E-013
 0.915878E-013
 0.916321E-013
 0.916763E-013
 0.917204E-013
 0.917645E-013
 0.918084E-013
 0.918523E-013
 0.918961E-013
 0.919398E-013
 0.919834E-013
 0.920268E-013
 0.920701E-013
 0.921131E-013
 0.921560E-013
 0.921987E-013
 0.922410E-013
 0.922831E-013
 0.923249E-013
 0.923664E-013
 0.924074E-013
 0.924481E-013
 0.924883E-013
 0.925280E-013
 0.925672E-013
 0.926058E-013
 0.926438E-013
 0.926811E-013
 0.927178E-013
 0.927536E-013
 0.927887E-013
 0.928229E-013
 0.928562E-013
 0.928886E-013
 0.929199E-013
 0.929501E-013
 0.929793E-013
 0.930073E-013
 0.930340E-013
 0.930595E-013
 0.930837E-013
 0.931064E-013
 0.931278E-013
 0.931477E-013
 0.931662E-013
 0.931830E-013
 0.931983E-013
 0.932120E-013
 0.932241E-013
 0.932345E-013
 0.932432E-013
 0.932501E-013
 0.932554E-013
 0.932589E-013
 0.932606E-013
 0.932606E-013
 0.932589E-013
 0.932554E-013
 0.932501E-013
 0.932431E-013
 0.932345E-013
 0.932241E-013
 0.932120E-013
 0.931983E-013
 0.931830E-013
 0.931661E-013
 0.931477E-013
 0.931278E-013
 0.931064E-013
 0.930836E-013
 0.930595E-013
 0.930340E-013
 0.930072E-013
 0.929793E-013
 0.929501E-013
 0.929199E-013
 0.928885E-013
 0.928562E-013
 0.928229E-013
 0.927887E-013
 0.927536E-013
 0.927178E-013
 0.926811E-013
 0.926438E-013
 0.926058E-013
 0.925672E-013
 0.925280E-013
 0.924883E-013
 0.924481E-013
 0.924074E-013
 0.923664E-013
 0.923249E-013
 0.922831E-013
 0.922410E-013
 0.921986E-013
 0.921560E-013
 0.921131E-013
 0.920701E-013
 0.920268E-013
 0.919834E-013
 0.919398E-013
 0.918962E-013
 0.918523E-013
 0.918084E-013
 0.917645E-013
 0.917204E-013
 0.916763E-013
 0.916321E-013
 0.915878E-013
 0.915435E-013
 0.914992E-013
 0.914549E-013
 0.914105E-013
 0.913660E-013
 0.913216E-013
 0.912771E-013
 0.912327E-013
 0.911853E-013
 0.911936E-013
 0.911853E-013
 0.910833E-013
 0.910863E-013
 0.910835E-013
 0.910810E-013
 0.910785E-013
 0.910760E-013
 0.910735E-013
 0.910710E-013
 0.910684E-013
 0.910659E-013
 0.910634E-013
 0.910610E-013
 0.910585E-013
 0.910560E-013
 0.910535E-013
 0.910510E-013
 0.910486E-013
 0.910461E-013
 0.910437E-013
 0.910413E-013
 0.910389E-013
 0.910365E-013
 0.910341E-013
 0.910317E-013
 0.910294E-013
 0.910270E-013
 0.910247E-013
 0.910224E-013
 0.910202E-013
 0.910180E-013
 0.910158E-013
 0.910136E-013
 0.910115E-013
 0.910094E-013
 0.910073E-013
 0.910053E-013
 0.910033E-013
 0.910014E-013
 0.909995E-013
 0.909977E-013
 0.909959E-013
 0.909942E-013
 0.909926E-013
 0.909910E-013
 0.909895E-013
 0.909880E-013
 0.909866E-013
 0.909853E-013
 0.909841E-013
 0.909829E-013
 0.909818E-013
 0.909808E-013
 0.909798E-013
 0.909790E-013
 0.909782E-013
 0.909775E-013
 0.909769E-013
 0.909763E-013
 0.909759E-013
 0.909756E-013
 0.909753E-013
 0.909751E-013
 0.909750E-013
 0.909750E-013
 0.909751E-013
 0.909753E-013
 0.909755E-013
 0.909759E-013
 0.909763E-013
 0.909769E-013
 0.909775E-013
 0.909782E-013
 0.909789E-013
 0.909798E-013
 0.909807E-013
 0.909818E-013
 0.909829E-013
 0.909840E-013
 0.909853E-013
 0.909866E-013
 0.909880E-013
 0.909894E-013
 0.909910E-013
 0.909926E-013
 0.909942E-013
 0.909959E-013
 0.909977E-013
 0.909995E-013
 0.910014E-013
 0.910033E-013
 0.910053E-013
 0.910073E-013
 0.910093E-013
 0.910114E-013
 0.910135E-013
 0.910157E-013
 0.910179E-013
 0.910201E-013
 0.910224E-013
 0.910247E-013
 0.910270E-013
 0.910293E-013
 0.910317E-013
 0.910340E-013
 0.910364E-013
 0.910388E-013
 0.910412E-013
 0.910437E-013
 0.910461E-013
 0.910486E-013
 0.910510E-013
 0.910535E-013
 0.910560E-013
 0.910584E-013
 0.910609E-013
 0.910634E-013
 0.910659E-013
 0.910684E-013
 0.910709E-013
 0.910734E-013
 0.910760E-013
 0.910785E-013
 0.910810E-013
 0.910835E-013
 0.910862E-013
 0.910833E-013
 0.911853E-013
 0.912327E-013
 0.910863E-013
 0.910944E-013
 0.910942E-013
 0.910943E-013
 0.910944E-013
 0.910945E-013
 0.910946E-013
 0.910947E-013
 0.910948E-013
 0.910949E-013
 0.910950E-013
 0.910951E-013
 0.910952E-013
 0.910954E-013
 0.910955E-013
 0.910956E-013
 0.910957E-013
 0.910958E-013
 0.910959E-013
 0.910960E-013
 0.910961E-013
 0.910963E-013
 0.910964E-013
 0.910965E-013
 0.910967E-013
 0.910968E-013
 0.910969E-013
 0.910971E-013
 0.910972E-013
 0.910974E-013
 0.910975E-013
 0.910977E-013
 0.910978E-013
 0.910980E-013
 0.910982E-013
 0.910984E-013
 0.910985E-013
 0.910987E-013
 0.910989E-013
 0.910991E-013
 0.910993E-013
 0.910994E-013
 0.910996E-013
 0.910998E-013
 0.911000E-013
 0.911002E-013
 0.911003E-013
 0.911005E-013
 0.911007E-013
 0.911009E-013
 0.911010E-013
 0.911012E-013
 0.911013E-013
 0.911014E-013
 0.911016E-013
 0.911017E-013
 0.911018E-013
 0.911018E-013
 0.911019E-013
 0.911020E-013
 0.911020E-013
 0.911020E-013
 0.911021E-013
 0.911021E-013
 0.911020E-013
 0.911020E-013
 0.911020E-013
 0.911019E-013
 0.911018E-013
 0.911018E-013
 0.911017E-013
 0.911016E-013
 0.911014E-013
 0.911013E-013
 0.911012E-013
 0.911010E-013
 0.911009E-013
 0.911007E-013
 0.911005E-013
 0.911003E-013
 0.911002E-013
 0.911000E-013
 0.910998E-013
 0.910996E-013
 0.910994E-013
 0.910992E-013
 0.910991E-013
 0.910989E-013
 0.910987E-013
 0.910985E-013
 0.910983E-013
 0.910982E-013
 0.910980E-013
 0.910978E-013
 0.910977E-013
 0.910975E-013
 0.910974E-013
 0.910972E-013
 0.910971E-013
 0.910969E-013
 0.910968E-013
 0.910967E-013
 0.910965E-013
 0.910964E-013
 0.910963E-013
 0.910961E-013
 0.910960E-013
 0.910959E-013
 0.910958E-013
 0.910957E-013
 0.910956E-013
 0.910955E-013
 0.910953E-013
 0.910952E-013
 0.910951E-013
 0.910950E-013
 0.910949E-013
 0.910948E-013
 0.910947E-013
 0.910946E-013
 0.910945E-013
 0.910944E-013
 0.910943E-013
 0.910942E-013
 0.910944E-013
 0.910862E-013
 0.912327E-013
 0.912771E-013
 0.910835E-013
 0.910942E-013
 0.910938E-013
 0.910938E-013
 0.910938E-013
 0.910938E-013
 0.910938E-013
 0.910939E-013
 0.910939E-013
 0.910939E-013
 0.910939E-013
 0.910939E-013
 0.910939E-013
 0.910939E-013
 0.910939E-013
 0.910939E-013
 0.910939E-013
 0.910940E-013
 0.910940E-013
 0.910940E-013
 0.910940E-013
 0.910941E-013
 0.910941E-013
 0.910942E-013
 0.910942E-013
 0.910943E-013
 0.910943E-013
 0.910944E-013
 0.910945E-013
 0.910945E-013
 0.910946E-013
 0.910947E-013
 0.910948E-013
 0.910949E-013
 0.910950E-013
 0.910951E-013
 0.910952E-013
 0.910953E-013
 0.910955E-013
 0.910956E-013
 0.910957E-013
 0.910959E-013
 0.910960E-013
 0.910962E-013
 0.910963E-013
 0.910964E-013
 0.910966E-013
 0.910967E-013
 0.910969E-013
 0.910970E-013
 0.910971E-013
 0.910973E-013
 0.910974E-013
 0.910975E-013
 0.910976E-013
 0.910977E-013
 0.910978E-013
 0.910979E-013
 0.910979E-013
 0.910980E-013
 0.910980E-013
 0.910980E-013
 0.910981E-013
 0.910981E-013
 0.910980E-013
 0.910980E-013
 0.910980E-013
 0.910979E-013
 0.910979E-013
 0.910978E-013
 0.910977E-013
 0.910976E-013
 0.910975E-013
 0.910974E-013
 0.910973E-013
 0.910971E-013
 0.910970E-013
 0.910969E-013
 0.910967E-013
 0.910966E-013
 0.910964E-013
 0.910963E-013
 0.910961E-013
 0.910960E-013
 0.910959E-013
 0.910957E-013
 0.910956E-013
 0.910955E-013
 0.910953E-013
 0.910952E-013
 0.910951E-013
 0.910950E-013
 0.910949E-013
 0.910948E-013
 0.910947E-013
 0.910946E-013
 0.910945E-013
 0.910944E-013
 0.910944E-013
 0.910943E-013
 0.910943E-013
 0.910942E-013
 0.910942E-013
 0.910941E-013
 0.910941E-013
 0.910940E-013
 0.910940E-013
 0.910940E-013
 0.910940E-013
 0.910939E-013
 0.910939E-013
 0.910939E-013
 0.910939E-013
 0.910939E-013
 0.910939E-013
 0.910939E-013
 0.910939E-013
 0.910938E-013
 0.910938E-013
 0.910938E-013
 0.910938E-013
 0.910938E-013
 0.910938E-013
 0.910938E-013
 0.910942E-013
 0.910835E-013
 0.912771E-013
 0.913216E-013
 0.910810E-013
 0.910943E-013
 0.910938E-013
 0.910939E-013
 0.910939E-013
 0.910939E-013
 0.910939E-013
 0.910939E-013
 0.910939E-013
 0.910939E-013
 0.910939E-013
 0.910939E-013
 0.910939E-013
 0.910940E-013
 0.910940E-013
 0.910940E-013
 0.910940E-013
 0.910941E-013
 0.910941E-013
 0.910941E-013
 0.910942E-013
 0.910942E-013
 0.910943E-013
 0.910943E-013
 0.910944E-013
 0.910944E-013
 0.910945E-013
 0.910946E-013
 0.910947E-013
 0.910948E-013
 0.910949E-013
 0.910950E-013
 0.910951E-013
 0.910952E-013
 0.910953E-013
 0.910955E-013
 0.910956E-013
 0.910958E-013
 0.910959E-013
 0.910961E-013
 0.910962E-013
 0.910964E-013
 0.910966E-013
 0.910968E-013
 0.910969E-013
 0.910971E-013
 0.910973E-013
 0.910975E-013
 0.910976E-013
 0.910978E-013
 0.910980E-013
 0.910981E-013
 0.910983E-013
 0.910984E-013
 0.910985E-013
 0.910987E-013
 0.910988E-013
 0.910988E-013
 0.910989E-013
 0.910990E-013
 0.910990E-013
 0.910991E-013
 0.910991E-013
 0.910991E-013
 0.910991E-013
 0.910990E-013
 0.910990E-013
 0.910989E-013
 0.910988E-013
 0.910988E-013
 0.910987E-013
 0.910985E-013
 0.910984E-013
 0.910983E-013
 0.910981E-013
 0.910980E-013
 0.910978E-013
 0.910976E-013
 0.910975E-013
 0.910973E-013
 0.910971E-013
 0.910969E-013
 0.910968E-013
 0.910966E-013
 0.910964E-013
 0.910962E-013
 0.910961E-013
 0.910959E-013
 0.910958E-013
 0.910956E-013
 0.910955E-013
 0.910953E-013
 0.910952E-013
 0.910951E-013
 0.910950E-013
 0.910949E-013
 0.910948E-013
 0.910947E-013
 0.910946E-013
 0.910945E-013
 0.910944E-013
 0.910944E-013
 0.910943E-013
 0.910942E-013
 0.910942E-013
 0.910942E-013
 0.910941E-013
 0.910941E-013
 0.910940E-013
 0.910940E-013
 0.910940E-013
 0.910940E-013
 0.910939E-013
 0.910939E-013
 0.910939E-013
 0.910939E-013
 0.910939E-013
 0.910939E-013
 0.910939E-013
 0.910939E-013
 0.910939E-013
 0.910939E-013
 0.910939E-013
 0.910938E-013
 0.910943E-013
 0.910810E-013
 0.913216E-013
 0.913660E-013
 0.910785E-013
 0.910944E-013
 0.910938E-013
 0.910939E-013
 0.910939E-013
 0.910939E-013
 0.910939E-013
 0.910939E-013
 0.910939E-013
 0.910939E-013
 0.910939E-013
 0.910939E-013
 0.910940E-013
 0.910940E-013
 0.910940E-013
 0.910940E-013
 0.910941E-013
 0.910941E-013
 0.910941E-013
 0.910942E-013
 0.910942E-013
 0.910943E-013
 0.910943E-013
 0.910944E-013
 0.910945E-013
 0.910946E-013
 0.910946E-013
 0.910947E-013
 0.910948E-013
 0.910950E-013
 0.910951E-013
 0.910952E-013
 0.910953E-013
 0.910955E-013
 0.910956E-013
 0.910958E-013
 0.910960E-013
 0.910961E-013
 0.910963E-013
 0.910965E-013
 0.910967E-013
 0.910969E-013
 0.910971E-013
 0.910973E-013
 0.910975E-013
 0.910978E-013
 0.910980E-013
 0.910982E-013
 0.910984E-013
 0.910986E-013
 0.910988E-013
 0.910990E-013
 0.910991E-013
 0.910993E-013
 0.910995E-013
 0.910996E-013
 0.910997E-013
 0.910998E-013
 0.910999E-013
 0.911000E-013
 0.911001E-013
 0.911001E-013
 0.911001E-013
 0.911001E-013
 0.911001E-013
 0.911001E-013
 0.911000E-013
 0.910999E-013
 0.910998E-013
 0.910997E-013
 0.910996E-013
 0.910995E-013
 0.910993E-013
 0.910991E-013
 0.910990E-013
 0.910988E-013
 0.910986E-013
 0.910984E-013
 0.910982E-013
 0.910980E-013
 0.910978E-013
 0.910975E-013
 0.910973E-013
 0.910971E-013
 0.910969E-013
 0.910967E-013
 0.910965E-013
 0.910963E-013
 0.910961E-013
 0.910960E-013
 0.910958E-013
 0.910956E-013
 0.910955E-013
 0.910953E-013
 0.910952E-013
 0.910951E-013
 0.910949E-013
 0.910948E-013
 0.910947E-013
 0.910946E-013
 0.910945E-013
 0.910945E-013
 0.910944E-013
 0.910943E-013
 0.910943E-013
 0.910942E-013
 0.910942E-013
 0.910941E-013
 0.910941E-013
 0.910941E-013
 0.910940E-013
 0.910940E-013
 0.910940E-013
 0.910940E-013
 0.910939E-013
 0.910939E-013
 0.910939E-013
 0.910939E-013
 0.910939E-013
 0.910939E-013
 0.910939E-013
 0.910939E-013
 0.910939E-013
 0.910938E-013
 0.910944E-013
 0.910785E-013
 0.913660E-013
 0.914105E-013
 0.910760E-013
 0.910945E-013
 0.910938E-013
 0.910939E-013
 0.910939E-013
 0.910939E-013
 0.910939E-013
 0.910939E-013
 0.910939E-013
 0.910939E-013
 0.910939E-013
 0.910940E-013
 0.910940E-013
 0.910940E-013
 0.910940E-013
 0.910941E-013
 0.910941E-013
 0.910941E-013
 0.910942E-013
 0.910942E-013
 0.910943E-013
 0.910944E-013
 0.910944E-013
 0.910945E-013
 0.910946E-013
 0.910947E-013
 0.910948E-013
 0.910949E-013
 0.910950E-013
 0.910952E-013
 0.910953E-013
 0.910955E-013
 0.910956E-013
 0.910958E-013
 0.910960E-013
 0.910962E-013
 0.910964E-013
 0.910966E-013
 0.910968E-013
 0.910970E-013
 0.910973E-013
 0.910975E-013
 0.910978E-013
 0.910980E-013
 0.910983E-013
 0.910985E-013
 0.910988E-013
 0.910990E-013
 0.910993E-013
 0.910995E-013
 0.910997E-013
 0.911000E-013
 0.911002E-013
 0.911004E-013
 0.911005E-013
 0.911007E-013
 0.911009E-013
 0.911010E-013
 0.911011E-013
 0.911012E-013
 0.911013E-013
 0.911013E-013
 0.911013E-013
 0.911013E-013
 0.911013E-013
 0.911013E-013
 0.911012E-013
 0.911011E-013
 0.911010E-013
 0.911009E-013
 0.911007E-013
 0.911005E-013
 0.911004E-013
 0.911002E-013
 0.911000E-013
 0.910997E-013
 0.910995E-013
 0.910993E-013
 0.910990E-013
 0.910988E-013
 0.910985E-013
 0.910983E-013
 0.910980E-013
 0.910978E-013
 0.910975E-013
 0.910973E-013
 0.910970E-013
 0.910968E-013
 0.910966E-013
 0.910964E-013
 0.910962E-013
 0.910960E-013
 0.910958E-013
 0.910956E-013
 0.910955E-013
 0.910953E-013
 0.910952E-013
 0.910950E-013
 0.910949E-013
 0.910948E-013
 0.910947E-013
 0.910946E-013
 0.910945E-013
 0.910944E-013
 0.910944E-013
 0.910943E-013
 0.910942E-013
 0.910942E-013
 0.910941E-013
 0.910941E-013
 0.910941E-013
 0.910940E-013
 0.910940E-013
 0.910940E-013
 0.910940E-013
 0.910939E-013
 0.910939E-013
 0.910939E-013
 0.910939E-013
 0.910939E-013
 0.910939E-013
 0.910939E-013
 0.910939E-013
 0.910938E-013
 0.910945E-013
 0.910760E-013
 0.914105E-013
 0.914549E-013
 0.910735E-013
 0.910946E-013
 0.910938E-013
 0.910939E-013
 0.910939E-013
 0.910939E-013
 0.910939E-013
 0.910939E-013
 0.910939E-013
 0.910939E-013
 0.910940E-013
 0.910940E-013
 0.910940E-013
 0.910940E-013
 0.910941E-013
 0.910941E-013
 0.910942E-013
 0.910942E-013
 0.910943E-013
 0.910943E-013
 0.910944E-013
 0.910945E-013
 0.910945E-013
 0.910946E-013
 0.910947E-013
 0.910949E-013
 0.910950E-013
 0.910951E-013
 0.910953E-013
 0.910954E-013
 0.910956E-013
 0.910958E-013
 0.910960E-013
 0.910962E-013
 0.910964E-013
 0.910966E-013
 0.910969E-013
 0.910971E-013
 0.910974E-013
 0.910977E-013
 0.910979E-013
 0.910982E-013
 0.910985E-013
 0.910988E-013
 0.910991E-013
 0.910994E-013
 0.910997E-013
 0.911000E-013
 0.911003E-013
 0.911006E-013
 0.911009E-013
 0.911011E-013
 0.911014E-013
 0.911016E-013
 0.911018E-013
 0.911020E-013
 0.911022E-013
 0.911024E-013
 0.911025E-013
 0.911026E-013
 0.911027E-013
 0.911027E-013
 0.911028E-013
 0.911028E-013
 0.911027E-013
 0.911027E-013
 0.911026E-013
 0.911025E-013
 0.911024E-013
 0.911022E-013
 0.911020E-013
 0.911018E-013
 0.911016E-013
 0.911014E-013
 0.911011E-013
 0.911009E-013
 0.911006E-013
 0.911003E-013
 0.911000E-013
 0.910997E-013
 0.910994E-013
 0.910991E-013
 0.910988E-013
 0.910985E-013
 0.910982E-013
 0.910979E-013
 0.910976E-013
 0.910974E-013
 0.910971E-013
 0.910969E-013
 0.910966E-013
 0.910964E-013
 0.910962E-013
 0.910960E-013
 0.910958E-013
 0.910956E-013
 0.910954E-013
 0.910953E-013
 0.910951E-013
 0.910950E-013
 0.910948E-013
 0.910947E-013
 0.910946E-013
 0.910945E-013
 0.910945E-013
 0.910944E-013
 0.910943E-013
 0.910942E-013
 0.910942E-013
 0.910941E-013
 0.910941E-013
 0.910941E-013
 0.910940E-013
 0.910940E-013
 0.910940E-013
 0.910940E-013
 0.910939E-013
 0.910939E-013
 0.910939E-013
 0.910939E-013
 0.910939E-013
 0.910939E-013
 0.910939E-013
 0.910938E-013
 0.910946E-013
 0.910734E-013
 0.914549E-013
 0.914992E-013
 0.910710E-013
 0.910947E-013
 0.910939E-013
 0.910939E-013
 0.910939E-013
 0.910939E-013
 0.910939E-013
 0.910939E-013
 0.910939E-013
 0.910940E-013
 0.910940E-013
 0.910940E-013
 0.910940E-013
 0.910941E-013
 0.910941E-013
 0.910942E-013
 0.910942E-013
 0.910943E-013
 0.910943E-013
 0.910944E-013
 0.910945E-013
 0.910946E-013
 0.910947E-013
 0.910948E-013
 0.910949E-013
 0.910951E-013
 0.910952E-013
 0.910954E-013
 0.910955E-013
 0.910957E-013
 0.910959E-013
 0.910961E-013
 0.910964E-013
 0.910966E-013
 0.910969E-013
 0.910971E-013
 0.910974E-013
 0.910977E-013
 0.910980E-013
 0.910984E-013
 0.910987E-013
 0.910990E-013
 0.910994E-013
 0.910997E-013
 0.911001E-013
 0.911005E-013
 0.911008E-013
 0.911012E-013
 0.911015E-013
 0.911018E-013
 0.911022E-013
 0.911025E-013
 0.911028E-013
 0.911031E-013
 0.911033E-013
 0.911036E-013
 0.911038E-013
 0.911039E-013
 0.911041E-013
 0.911042E-013
 0.911043E-013
 0.911044E-013
 0.911044E-013
 0.911044E-013
 0.911044E-013
 0.911043E-013
 0.911042E-013
 0.911041E-013
 0.911039E-013
 0.911038E-013
 0.911035E-013
 0.911033E-013
 0.911031E-013
 0.911028E-013
 0.911025E-013
 0.911022E-013
 0.911018E-013
 0.911015E-013
 0.911012E-013
 0.911008E-013
 0.911004E-013
 0.911001E-013
 0.910997E-013
 0.910994E-013
 0.910990E-013
 0.910987E-013
 0.910984E-013
 0.910980E-013
 0.910977E-013
 0.910974E-013
 0.910971E-013
 0.910969E-013
 0.910966E-013
 0.910964E-013
 0.910961E-013
 0.910959E-013
 0.910957E-013
 0.910955E-013
 0.910953E-013
 0.910952E-013
 0.910950E-013
 0.910949E-013
 0.910948E-013
 0.910947E-013
 0.910946E-013
 0.910945E-013
 0.910944E-013
 0.910943E-013
 0.910943E-013
 0.910942E-013
 0.910942E-013
 0.910941E-013
 0.910941E-013
 0.910940E-013
 0.910940E-013
 0.910940E-013
 0.910940E-013
 0.910939E-013
 0.910939E-013
 0.910939E-013
 0.910939E-013
 0.910939E-013
 0.910939E-013
 0.910938E-013
 0.910947E-013
 0.910709E-013
 0.914992E-013
 0.915435E-013
 0.910684E-013
 0.910948E-013
 0.910939E-013
 0.910939E-013
 0.910939E-013
 0.910939E-013
 0.910939E-013
 0.910939E-013
 0.910940E-013
 0.910940E-013
 0.910940E-013
 0.910940E-013
 0.910941E-013
 0.910941E-013
 0.910942E-013
 0.910942E-013
 0.910943E-013
 0.910944E-013
 0.910944E-013
 0.910945E-013
 0.910946E-013
 0.910947E-013
 0.910948E-013
 0.910950E-013
 0.910951E-013
 0.910953E-013
 0.910954E-013
 0.910956E-013
 0.910958E-013
 0.910961E-013
 0.910963E-013
 0.910966E-013
 0.910968E-013
 0.910971E-013
 0.910974E-013
 0.910978E-013
 0.910981E-013
 0.910984E-013
 0.910988E-013
 0.910992E-013
 0.910996E-013
 0.911000E-013
 0.911004E-013
 0.911008E-013
 0.911012E-013
 0.911017E-013
 0.911021E-013
 0.911025E-013
 0.911029E-013
 0.911033E-013
 0.911037E-013
 0.911041E-013
 0.911044E-013
 0.911047E-013
 0.911051E-013
 0.911053E-013
 0.911056E-013
 0.911058E-013
 0.911060E-013
 0.911061E-013
 0.911062E-013
 0.911063E-013
 0.911064E-013
 0.911064E-013
 0.911063E-013
 0.911062E-013
 0.911061E-013
 0.911060E-013
 0.911058E-013
 0.911056E-013
 0.911053E-013
 0.911050E-013
 0.911047E-013
 0.911044E-013
 0.911041E-013
 0.911037E-013
 0.911033E-013
 0.911029E-013
 0.911025E-013
 0.911021E-013
 0.911017E-013
 0.911012E-013
 0.911008E-013
 0.911004E-013
 0.911000E-013
 0.910996E-013
 0.910992E-013
 0.910988E-013
 0.910984E-013
 0.910981E-013
 0.910977E-013
 0.910974E-013
 0.910971E-013
 0.910968E-013
 0.910965E-013
 0.910963E-013
 0.910961E-013
 0.910958E-013
 0.910956E-013
 0.910954E-013
 0.910953E-013
 0.910951E-013
 0.910950E-013
 0.910948E-013
 0.910947E-013
 0.910946E-013
 0.910945E-013
 0.910944E-013
 0.910943E-013
 0.910943E-013
 0.910942E-013
 0.910942E-013
 0.910941E-013
 0.910941E-013
 0.910940E-013
 0.910940E-013
 0.910940E-013
 0.910940E-013
 0.910939E-013
 0.910939E-013
 0.910939E-013
 0.910939E-013
 0.910939E-013
 0.910939E-013
 0.910948E-013
 0.910684E-013
 0.915435E-013
 0.915878E-013
 0.910659E-013
 0.910949E-013
 0.910939E-013
 0.910939E-013
 0.910939E-013
 0.910939E-013
 0.910939E-013
 0.910940E-013
 0.910940E-013
 0.910940E-013
 0.910940E-013
 0.910941E-013
 0.910941E-013
 0.910942E-013
 0.910942E-013
 0.910943E-013
 0.910944E-013
 0.910944E-013
 0.910945E-013
 0.910946E-013
 0.910948E-013
 0.910949E-013
 0.910950E-013
 0.910952E-013
 0.910953E-013
 0.910955E-013
 0.910957E-013
 0.910960E-013
 0.910962E-013
 0.910965E-013
 0.910967E-013
 0.910970E-013
 0.910974E-013
 0.910977E-013
 0.910981E-013
 0.910985E-013
 0.910989E-013
 0.910993E-013
 0.910997E-013
 0.911002E-013
 0.911006E-013
 0.911011E-013
 0.911016E-013
 0.911021E-013
 0.911026E-013
 0.911031E-013
 0.911036E-013
 0.911041E-013